 Entering Gaussian System, Link 0=g16
 Input=/net/work/jansen/gmx2qmmm_portable/examples/opt/test.1.gjf
 Output=/net/work/jansen/gmx2qmmm_portable/examples/opt/test.1.log
 Initial command:
 /afs/math/software/gaussian/g16.A03/g16/l1.exe "/net/work/jansen/gmx2qmmm_portable/examples/opt/Gau-22658.inp" -scrdir="/net/work/jansen/gmx2qmmm_portable/examples/opt/"
 Entering Link 1 = /afs/math/software/gaussian/g16.A03/g16/l1.exe PID=     22659.
  
 Copyright (c) 1988,1990,1992,1993,1995,1998,2003,2009,2016,
            Gaussian, Inc.  All Rights Reserved.
  
 This is part of the Gaussian(R) 16 program.  It is based on
 the Gaussian(R) 09 system (copyright 2009, Gaussian, Inc.),
 the Gaussian(R) 03 system (copyright 2003, Gaussian, Inc.),
 the Gaussian(R) 98 system (copyright 1998, Gaussian, Inc.),
 the Gaussian(R) 94 system (copyright 1995, Gaussian, Inc.),
 the Gaussian 92(TM) system (copyright 1992, Gaussian, Inc.),
 the Gaussian 90(TM) system (copyright 1990, Gaussian, Inc.),
 the Gaussian 88(TM) system (copyright 1988, Gaussian, Inc.),
 the Gaussian 86(TM) system (copyright 1986, Carnegie Mellon
 University), and the Gaussian 82(TM) system (copyright 1983,
 Carnegie Mellon University). Gaussian is a federally registered
 trademark of Gaussian, Inc.
  
 This software contains proprietary and confidential information,
 including trade secrets, belonging to Gaussian, Inc.
  
 This software is provided under written license and may be
 used, copied, transmitted, or stored only in accord with that
 written license.
  
 The following legend is applicable only to US Government
 contracts under FAR:
  
                    RESTRICTED RIGHTS LEGEND
  
 Use, reproduction and disclosure by the US Government is
 subject to restrictions as set forth in subparagraphs (a)
 and (c) of the Commercial Computer Software - Restricted
 Rights clause in FAR 52.227-19.
  
 Gaussian, Inc.
 340 Quinnipiac St., Bldg. 40, Wallingford CT 06492
  
  
 ---------------------------------------------------------------
 Warning -- This program may not be used in any manner that
 competes with the business of Gaussian, Inc. or will provide
 assistance to any competitor of Gaussian, Inc.  The licensee
 of this program is prohibited from giving any competitor of
 Gaussian, Inc. access to this program.  By using this program,
 the user acknowledges that Gaussian, Inc. is engaged in the
 business of creating and licensing software in the field of
 computational chemistry and represents and warrants to the
 licensee that it is not a competitor of Gaussian, Inc. and that
 it will not use this program in any manner prohibited above.
 ---------------------------------------------------------------
  

 Cite this work as:
 Gaussian 16, Revision A.03,
 M. J. Frisch, G. W. Trucks, H. B. Schlegel, G. E. Scuseria, 
 M. A. Robb, J. R. Cheeseman, G. Scalmani, V. Barone, 
 G. A. Petersson, H. Nakatsuji, X. Li, M. Caricato, A. V. Marenich, 
 J. Bloino, B. G. Janesko, R. Gomperts, B. Mennucci, H. P. Hratchian, 
 J. V. Ortiz, A. F. Izmaylov, J. L. Sonnenberg, D. Williams-Young, 
 F. Ding, F. Lipparini, F. Egidi, J. Goings, B. Peng, A. Petrone, 
 T. Henderson, D. Ranasinghe, V. G. Zakrzewski, J. Gao, N. Rega, 
 G. Zheng, W. Liang, M. Hada, M. Ehara, K. Toyota, R. Fukuda, 
 J. Hasegawa, M. Ishida, T. Nakajima, Y. Honda, O. Kitao, H. Nakai, 
 T. Vreven, K. Throssell, J. A. Montgomery, Jr., J. E. Peralta, 
 F. Ogliaro, M. J. Bearpark, J. J. Heyd, E. N. Brothers, K. N. Kudin, 
 V. N. Staroverov, T. A. Keith, R. Kobayashi, J. Normand, 
 K. Raghavachari, A. P. Rendell, J. C. Burant, S. S. Iyengar, 
 J. Tomasi, M. Cossi, J. M. Millam, M. Klene, C. Adamo, R. Cammi, 
 J. W. Ochterski, R. L. Martin, K. Morokuma, O. Farkas, 
 J. B. Foresman, and D. J. Fox, Gaussian, Inc., Wallingford CT, 2016.
 
 ******************************************
 Gaussian 16:  ES64L-G16RevA.03 25-Dec-2016
                22-May-2026 
 ******************************************
 %NPROCSHARED=1
 Will use up to    1 processors via shared memory.
 %MEM=1000MB
 %CHK=test.1.chk
 %OLDCHK=test.chk
 Copying data from "test.chk" to current chk file "test.1.chk"
 IOpt=  2 FromEx=T IUOpen= 4 IOptOp= 5 NList=   0 IFRang= 0 IUIn= 4 IUOut= 2.
 ----------------------------------------------------------------------
 #P BP86/STO-3G guess=read nosymm gfinput gfprint force charge guess=hu
 ckel punch=derivatives iop(3/33=1,6/7=3) prop(field,read) pop=esp
 ----------------------------------------------------------------------
 1/10=7,18=10,28=-2,30=1,38=1,125=101/1,3;
 2/12=2,15=1,17=6,18=5,29=2,40=1/2;
 3/6=3,11=2,24=110,25=1,30=1,33=1,71=1,74=404,116=-2/1,2,3;
 4/5=1,11=4/1;
 5/5=2,38=6/2;
 6/7=3,8=2,9=2,10=2,14=2,15=9,28=1/1,2;
 7/7=1,16=-2,29=1,30=1/1,2,3,16;
 1/10=7,18=10,28=-2,30=1/3;
 99/10=4,12=1/99;
 Leave Link    1 at Fri May 22 12:39:20 2026, MaxMem=   131072000 cpu:               0.1 elap:               0.1
 (Enter /afs/math/software/gaussian/g16.A03/g16/l101.exe)
 -----------------
 QM part of step 1
 -----------------
 Symbolic Z-matrix:
 Charge =  1 Multiplicity = 1
 N                     47.86463   85.61675   31.12072 
 H                     47.7002   84.86183   30.46192 
 H                     47.19943   86.37527   30.89965 
 H                     48.80512   85.96395   31.05705 
 C                     47.57786   85.16884   32.47507 
 H                     48.21607   84.38099   32.67675 
 H                     46.60574   84.80284   32.50095 
 H                     47.70668   85.95204   33.18173 
 
 ITRead=  0  0  0  0  0  0  0  0
 MicOpt= -1 -1 -1 -1 -1 -1 -1 -1
 NAtoms=      8 NQM=        8 NQMF=       0 NMMI=      0 NMMIF=      0
                NMic=       0 NMicF=      0.
                    Isotopes and Nuclear Properties:
 (Nuclear quadrupole moments (NQMom) in fm**2, nuclear magnetic moments (NMagM)
  in nuclear magnetons)

  Atom         1           2           3           4           5           6           7           8
 IAtWgt=          14           1           1           1          12           1           1           1
 AtmWgt=  14.0030740   1.0078250   1.0078250   1.0078250  12.0000000   1.0078250   1.0078250   1.0078250
 NucSpn=           2           1           1           1           0           1           1           1
 AtZEff=  -0.0000000  -0.0000000  -0.0000000  -0.0000000  -0.0000000  -0.0000000  -0.0000000  -0.0000000
 NQMom=    2.0440000   0.0000000   0.0000000   0.0000000   0.0000000   0.0000000   0.0000000   0.0000000
 NMagM=    0.4037610   2.7928460   2.7928460   2.7928460   0.0000000   2.7928460   2.7928460   2.7928460
 AtZNuc=   7.0000000   1.0000000   1.0000000   1.0000000   6.0000000   1.0000000   1.0000000   1.0000000
 Background charge distribution read from input stream:
 Point Charges:
 XYZ=   46.9498   86.4352   34.3660 Q=   -0.2861 A=    0.0000 R=    0.0000 C=    0.0000
 XYZ=   48.8603   87.0061   33.3373 Q=   -0.0960 A=    0.0000 R=    0.0000 C=    0.0000
 XYZ=   49.5206   86.7820   32.6209 Q=    0.2681 A=    0.0000 R=    0.0000 C=    0.0000
 XYZ=   49.1387   88.1522   34.1993 Q=   -0.2722 A=    0.0000 R=    0.0000 C=    0.0000
 XYZ=   49.2906   87.7682   35.1407 Q=    0.1304 A=    0.0000 R=    0.0000 C=    0.0000
 XYZ=   50.3712   88.8963   33.7554 Q=    0.1123 A=    0.0000 R=    0.0000 C=    0.0000
 XYZ=   50.5722   89.6498   34.3987 Q=    0.0813 A=    0.0000 R=    0.0000 C=    0.0000
 XYZ=   51.1689   88.2631   33.7402 Q=    0.0813 A=    0.0000 R=    0.0000 C=    0.0000
 XYZ=   50.1821   89.4172   32.4937 Q=   -0.6514 A=    0.0000 R=    0.0000 C=    0.0000
 XYZ=   50.9519   89.8926   32.2198 Q=    0.4474 A=    0.0000 R=    0.0000 C=    0.0000
 XYZ=   47.9597   89.0680   34.2706 Q=    0.8113 A=    0.0000 R=    0.0000 C=    0.0000
 XYZ=   47.6836   89.6072   33.3271 Q=   -0.8132 A=    0.0000 R=    0.0000 C=    0.0000
 XYZ=   47.2900   89.2600   35.2500 Q=   -0.8132 A=    0.0000 R=    0.0000 C=    0.0000
 XYZ=   46.5426   86.5196   34.8191 Q=   -0.2758 A=    0.0000 R=    0.0000 C=    0.0000
 XYZ=   47.3571   86.3507   33.9130 Q=    0.2758 A=    0.0000 R=    0.0000 C=    0.0000
 XYZ=   49.4013   87.3688   33.2740 Q=   -0.2834 A=    0.0000 R=    0.0000 C=    0.0000
 XYZ=   48.3193   86.6434   33.4006 Q=    0.2834 A=    0.0000 R=    0.0000 C=    0.0000
 Pt Chg Charge=             -1.0000 electrons
 Pt Chg Dipole moment (Debye):
    X=           -221.7349    Y=           -429.3711    Z=           -166.2465  Tot=            511.0418
 Pt Chg Quadrupole moment (Debye-Ang):
   XX=         -10213.2838   YY=         -38381.4442   ZZ=          -5758.2919
   XY=         -19828.4748   XZ=          -7677.1411   YZ=         -14853.6480
 Pt Chg Traceless Quadrupole moment (Debye-Ang):
   XX=           7904.3895   YY=         -20263.7709   ZZ=          12359.3814
   XY=         -19828.4748   XZ=          -7677.1411   YZ=         -14853.6480
 Pt Chg Octapole moment (Debye-Ang**2):
  XXX=        -469221.5879  YYY=       -3430814.8031  ZZZ=        -199598.8277  XYY=       -1773059.7396
  XXY=        -913652.1637  XXZ=        -353764.4250  XZZ=        -265994.8247  YZZ=        -514235.1504
  YYZ=       -1327117.5425  XYZ=        -686163.8160
 Pt Chg Hexadecapole moment (Debye-Ang**3):
 XXXX=      -21492954.9478 YYYY=     -306662892.5670 ZZZZ=       -6923838.5544 XXXY=      -41991514.6495
 XXXZ=      -16261357.7736 YYYX=     -158539336.5655 YYYZ=     -118571831.5742 ZZZX=       -9222736.1716
 ZZZY=      -17816484.3495 XXYY=      -81727140.2959 XXZZ=      -12261866.5031 YYZZ=      -45923348.9393
 XXYZ=      -31629765.6928 YYXZ=      -61325936.8668 ZZXY=      -23762009.1140
 Leave Link  101 at Fri May 22 12:39:20 2026, MaxMem=   131072000 cpu:               0.1 elap:               0.1
 (Enter /afs/math/software/gaussian/g16.A03/g16/l103.exe)

 GradGradGradGradGradGradGradGradGradGradGradGradGradGradGradGradGradGrad
 Berny optimization.
 Initialization pass.
 Trust Radius=3.00D-01 FncErr=1.00D-07 GrdErr=1.00D-07 EigMax=2.50D+02 EigMin=1.00D-04
 Number of steps in this run=      2 maximum allowed number of steps=      2.
 GradGradGradGradGradGradGradGradGradGradGradGradGradGradGradGradGradGrad

 Leave Link  103 at Fri May 22 12:39:20 2026, MaxMem=   131072000 cpu:               0.0 elap:               0.0
 (Enter /afs/math/software/gaussian/g16.A03/g16/l202.exe)
 ---------------------------------------------------------------------------------------------------
                            Z-MATRIX (ANGSTROMS AND DEGREES)
   CD    Cent   Atom    N1       Length/X        N2       Alpha/Y        N3        Beta/Z          J
 ---------------------------------------------------------------------------------------------------
      1      1  N        0  47.864625         85.616753         31.120718
      2      2  H        0  47.700195         84.861827         30.461917
      3      3  H        0  47.199430         86.375267         30.899654
      4      4  H        0  48.805121         85.963948         31.057046
      5      5  C        0  47.577863         85.168837         32.475069
      6      6  H        0  48.216070         84.380991         32.676753
      7      7  H        0  46.605741         84.802844         32.500954
      8      8  H        0  47.706677         85.952040         33.181729
 ---------------------------------------------------------------------------------------------------
                         Z-Matrix orientation:                         
 ---------------------------------------------------------------------
 Center     Atomic      Atomic             Coordinates (Angstroms)
 Number     Number       Type             X           Y           Z
 ---------------------------------------------------------------------
      1          7           0       47.864625   85.616753   31.120718
      2          1           0       47.700195   84.861827   30.461917
      3          1           0       47.199430   86.375267   30.899654
      4          1           0       48.805121   85.963948   31.057046
      5          6           0       47.577863   85.168837   32.475069
      6          1           0       48.216070   84.380991   32.676753
      7          1           0       46.605741   84.802844   32.500954
      8          1           0       47.706677   85.952040   33.181729
 ---------------------------------------------------------------------
                    Distance matrix (angstroms):
                    1          2          3          4          5
     1  N    0.000000
     2  H    1.015367   0.000000
     3  H    1.032810   1.653142   0.000000
     4  H    1.004555   1.670243   1.664992   0.000000
     5  C    1.455035   2.040098   2.020054   2.036947   0.000000
     6  H    2.017887   2.324399   2.858107   2.340125   1.033773
     7  H    2.037716   2.314947   2.321453   2.875814   1.039058
     8  H    2.094071   2.930185   2.375771   2.391861   1.062717
                    6          7          8
     6  H    0.000000
     7  H    1.673925   0.000000
     8  H    1.727043   1.730944   0.000000
 Symmetry turned off by external request.
 Stoichiometry    CH6N(1+)
 Framework group  C1[X(CH6N)]
 Deg. of freedom    18
 Full point group                 C1      NOp   1
 Rotational constants (GHZ):          88.1210634          21.6116582          21.4998259
 Leave Link  202 at Fri May 22 12:39:20 2026, MaxMem=   131072000 cpu:               0.0 elap:               0.0
 (Enter /afs/math/software/gaussian/g16.A03/g16/l301.exe)
 Standard basis: STO-3G (5D, 7F)
                         Coordinates in L301:                         
 ---------------------------------------------------------------------
 Center     Atomic      Atomic             Coordinates (Angstroms)
 Number     Number       Type             X           Y           Z
 ---------------------------------------------------------------------
      1          7           0       47.864625   85.616753   31.120718
      2          1           0       47.700195   84.861827   30.461917
      3          1           0       47.199430   86.375267   30.899654
      4          1           0       48.805121   85.963948   31.057046
      5          6           0       47.577863   85.168837   32.475069
      6          1           0       48.216070   84.380991   32.676753
      7          1           0       46.605741   84.802844   32.500954
      8          1           0       47.706677   85.952040   33.181729
 ---------------------------------------------------------------------
 FixB: optimizing general contractions.
 Ernie: Thresh=  0.10000D-02 Tol=  0.10000D-05 Strict=F.
 IA=     1 ShT= 0 ShC= 0 NL=   1 NS=   0.
 IA=     1 L=0 SC=0 ISt=    0 NBk=    0 NP=    0 IndPr=    0.
 IA=     1 ShT= 1 ShC= 0 NL=   1 NS=   0.
 IA=     1 L=1 SC=0 ISt=    0 NBk=    0 NP=    0 IndPr=    0.
 IA=     2 ShT= 0 ShC= 0 NL=   1 NS=   0.
 IA=     2 L=0 SC=0 ISt=    0 NBk=    0 NP=    0 IndPr=    0.
 IA=     3 ShT= 0 ShC= 0 NL=   1 NS=   0.
 IA=     3 L=0 SC=0 ISt=    0 NBk=    0 NP=    0 IndPr=    0.
 IA=     4 ShT= 0 ShC= 0 NL=   1 NS=   0.
 IA=     4 L=0 SC=0 ISt=    0 NBk=    0 NP=    0 IndPr=    0.
 IA=     5 ShT= 0 ShC= 0 NL=   1 NS=   0.
 IA=     5 L=0 SC=0 ISt=    0 NBk=    0 NP=    0 IndPr=    0.
 IA=     5 ShT= 1 ShC= 0 NL=   1 NS=   0.
 IA=     5 L=1 SC=0 ISt=    0 NBk=    0 NP=    0 IndPr=    0.
 IA=     6 ShT= 0 ShC= 0 NL=   1 NS=   0.
 IA=     6 L=0 SC=0 ISt=    0 NBk=    0 NP=    0 IndPr=    0.
 IA=     7 ShT= 0 ShC= 0 NL=   1 NS=   0.
 IA=     7 L=0 SC=0 ISt=    0 NBk=    0 NP=    0 IndPr=    0.
 IA=     8 ShT= 0 ShC= 0 NL=   1 NS=   0.
 IA=     8 L=0 SC=0 ISt=    0 NBk=    0 NP=    0 IndPr=    0.
 AO basis set in the form of general basis input (Overlap normalization):
      1 0
 S   3 1.00       0.000000000000
      0.9910616896D+02  0.1543289673D+00
      0.1805231239D+02  0.5353281423D+00
      0.4885660238D+01  0.4446345422D+00
 SP   3 1.00       0.000000000000
      0.3780455879D+01 -0.9996722919D-01  0.1559162750D+00
      0.8784966449D+00  0.3995128261D+00  0.6076837186D+00
      0.2857143744D+00  0.7001154689D+00  0.3919573931D+00
 ****
      2 0
 S   3 1.00       0.000000000000
      0.3425250914D+01  0.1543289673D+00
      0.6239137298D+00  0.5353281423D+00
      0.1688554040D+00  0.4446345422D+00
 ****
      3 0
 S   3 1.00       0.000000000000
      0.3425250914D+01  0.1543289673D+00
      0.6239137298D+00  0.5353281423D+00
      0.1688554040D+00  0.4446345422D+00
 ****
      4 0
 S   3 1.00       0.000000000000
      0.3425250914D+01  0.1543289673D+00
      0.6239137298D+00  0.5353281423D+00
      0.1688554040D+00  0.4446345422D+00
 ****
      5 0
 S   3 1.00       0.000000000000
      0.7161683735D+02  0.1543289673D+00
      0.1304509632D+02  0.5353281423D+00
      0.3530512160D+01  0.4446345422D+00
 SP   3 1.00       0.000000000000
      0.2941249355D+01 -0.9996722919D-01  0.1559162750D+00
      0.6834830964D+00  0.3995128261D+00  0.6076837186D+00
      0.2222899159D+00  0.7001154689D+00  0.3919573931D+00
 ****
      6 0
 S   3 1.00       0.000000000000
      0.3425250914D+01  0.1543289673D+00
      0.6239137298D+00  0.5353281423D+00
      0.1688554040D+00  0.4446345422D+00
 ****
      7 0
 S   3 1.00       0.000000000000
      0.3425250914D+01  0.1543289673D+00
      0.6239137298D+00  0.5353281423D+00
      0.1688554040D+00  0.4446345422D+00
 ****
      8 0
 S   3 1.00       0.000000000000
      0.3425250914D+01  0.1543289673D+00
      0.6239137298D+00  0.5353281423D+00
      0.1688554040D+00  0.4446345422D+00
 ****

 AO basis set (Overlap normalization):
 Atom N1       Shell     1 S   3     bf    1 -     1         90.451032305010        161.792214844534         58.809633819822
      0.9910616896D+02  0.1543289673D+00
      0.1805231239D+02  0.5353281423D+00
      0.4885660238D+01  0.4446345422D+00
 Atom N1       Shell     2 SP   3    bf    2 -     5         90.451032305010        161.792214844534         58.809633819822
      0.3780455879D+01 -0.9996722919D-01  0.1559162750D+00
      0.8784966449D+00  0.3995128261D+00  0.6076837186D+00
      0.2857143744D+00  0.7001154689D+00  0.3919573931D+00
 Atom H2       Shell     3 S   3     bf    6 -     6         90.140304638348        160.365611460221         57.564680359233
      0.3425250914D+01  0.1543289673D+00
      0.6239137298D+00  0.5353281423D+00
      0.1688554040D+00  0.4446345422D+00
 Atom H3       Shell     4 S   3     bf    7 -     7         89.193995935580        163.225598566183         58.391883403821
      0.3425250914D+01  0.1543289673D+00
      0.6239137298D+00  0.5353281423D+00
      0.1688554040D+00  0.4446345422D+00
 Atom H4       Shell     5 S   3     bf    8 -     8         92.228312166259        162.448318306353         58.689311178019
      0.3425250914D+01  0.1543289673D+00
      0.6239137298D+00  0.5353281423D+00
      0.1688554040D+00  0.4446345422D+00
 Atom C5       Shell     6 S   3     bf    9 -     9         89.909130662077        160.945776277723         61.368986286353
      0.7161683735D+02  0.1543289673D+00
      0.1304509632D+02  0.5353281423D+00
      0.3530512160D+01  0.4446345422D+00
 Atom C5       Shell     7 SP   3    bf   10 -    13         89.909130662077        160.945776277723         61.368986286353
      0.2941249355D+01 -0.9996722919D-01  0.1559162750D+00
      0.6834830964D+00  0.3995128261D+00  0.6076837186D+00
      0.2222899159D+00  0.7001154689D+00  0.3919573931D+00
 Atom H6       Shell     8 S   3     bf   14 -    14         91.115167102858        159.456963109389         61.750113810060
      0.3425250914D+01  0.1543289673D+00
      0.6239137298D+00  0.5353281423D+00
      0.1688554040D+00  0.4446345422D+00
 Atom H7       Shell     9 S   3     bf   15 -    15         88.072086322413        160.254149744216         61.417901847087
      0.3425250914D+01  0.1543289673D+00
      0.6239137298D+00  0.5353281423D+00
      0.1688554040D+00  0.4446345422D+00
 Atom H8       Shell    10 S   3     bf   16 -    16         90.152553843087        162.425815447661         62.704380149538
      0.3425250914D+01  0.1543289673D+00
      0.6239137298D+00  0.5353281423D+00
      0.1688554040D+00  0.4446345422D+00
 LdAtmC:  AtmChg=     7.000000     1.000000     1.000000     1.000000     6.000000
 LdAtmC:  AtmChg=     1.000000     1.000000     1.000000
 AtZEff=     -4.5500000     -1.0000000     -1.0000000     -1.0000000     -3.6000000
 AtZEff=     -1.0000000     -1.0000000     -1.0000000
    16 basis functions,    48 primitive gaussians,    16 cartesian basis functions
     9 alpha electrons        9 beta electrons
       nuclear repulsion energy        49.2081434404 Hartrees.
 IS=     1 IAt=     1 ISR=     1 T=0 IP=      1 IndIP=      1 IndIPD=      0 C=  3.454881D+00  0.000000D+00                             NZ=T
 IS=     1 IAt=     1 ISR=     1 T=0 IP=      2 IndIP=      2 IndIPD=      1 C=  3.341410D+00  0.000000D+00                             NZ=T
 IS=     1 IAt=     1 ISR=     1 T=0 IP=      3 IndIP=      3 IndIPD=      2 C=  1.041372D+00  0.000000D+00                             NZ=T
 IS=     2 IAt=     1 ISR=     2 T=1 IP=      1 IndIP=      4 IndIPD=      0 C= -1.931639D-01  1.171553D+00                             NZ=T
 IS=     2 IAt=     1 ISR=     2 T=1 IP=      2 IndIP=      5 IndIPD=      1 C=  2.583723D-01  7.367037D-01                             NZ=T
 IS=     2 IAt=     1 ISR=     2 T=1 IP=      3 IndIP=      6 IndIPD=      2 C=  1.949974D-01  1.167062D-01                             NZ=T
 IS=     3 IAt=     2 ISR=     1 T=0 IP=      1 IndIP=      7 IndIPD=      0 C=  2.769344D-01  0.000000D+00                             NZ=T
 IS=     3 IAt=     2 ISR=     1 T=0 IP=      2 IndIP=      8 IndIPD=      1 C=  2.678389D-01  0.000000D+00                             NZ=T
 IS=     3 IAt=     2 ISR=     1 T=0 IP=      3 IndIP=      9 IndIPD=      2 C=  8.347367D-02  0.000000D+00                             NZ=T
 IS=     4 IAt=     3 ISR=     1 T=0 IP=      1 IndIP=     10 IndIPD=      0 C=  2.769344D-01  0.000000D+00                             NZ=T
 IS=     4 IAt=     3 ISR=     1 T=0 IP=      2 IndIP=     11 IndIPD=      1 C=  2.678389D-01  0.000000D+00                             NZ=T
 IS=     4 IAt=     3 ISR=     1 T=0 IP=      3 IndIP=     12 IndIPD=      2 C=  8.347367D-02  0.000000D+00                             NZ=T
 IS=     5 IAt=     4 ISR=     1 T=0 IP=      1 IndIP=     13 IndIPD=      0 C=  2.769344D-01  0.000000D+00                             NZ=T
 IS=     5 IAt=     4 ISR=     1 T=0 IP=      2 IndIP=     14 IndIPD=      1 C=  2.678389D-01  0.000000D+00                             NZ=T
 IS=     5 IAt=     4 ISR=     1 T=0 IP=      3 IndIP=     15 IndIPD=      2 C=  8.347367D-02  0.000000D+00                             NZ=T
 IS=     6 IAt=     5 ISR=     1 T=0 IP=      1 IndIP=     16 IndIPD=      0 C=  2.707814D+00  0.000000D+00                             NZ=T
 IS=     6 IAt=     5 ISR=     1 T=0 IP=      2 IndIP=     17 IndIPD=      1 C=  2.618880D+00  0.000000D+00                             NZ=T
 IS=     6 IAt=     5 ISR=     1 T=0 IP=      3 IndIP=     18 IndIPD=      2 C=  8.161906D-01  0.000000D+00                             NZ=T
 IS=     7 IAt=     5 ISR=     2 T=1 IP=      1 IndIP=     19 IndIPD=      0 C= -1.600172D-01  8.560445D-01                             NZ=T
 IS=     7 IAt=     5 ISR=     2 T=1 IP=      2 IndIP=     20 IndIPD=      1 C=  2.140359D-01  5.383038D-01                             NZ=T
 IS=     7 IAt=     5 ISR=     2 T=1 IP=      3 IndIP=     21 IndIPD=      2 C=  1.615361D-01  8.527636D-02                             NZ=T
 IS=     8 IAt=     6 ISR=     1 T=0 IP=      1 IndIP=     22 IndIPD=      0 C=  2.769344D-01  0.000000D+00                             NZ=T
 IS=     8 IAt=     6 ISR=     1 T=0 IP=      2 IndIP=     23 IndIPD=      1 C=  2.678389D-01  0.000000D+00                             NZ=T
 IS=     8 IAt=     6 ISR=     1 T=0 IP=      3 IndIP=     24 IndIPD=      2 C=  8.347367D-02  0.000000D+00                             NZ=T
 IS=     9 IAt=     7 ISR=     1 T=0 IP=      1 IndIP=     25 IndIPD=      0 C=  2.769344D-01  0.000000D+00                             NZ=T
 IS=     9 IAt=     7 ISR=     1 T=0 IP=      2 IndIP=     26 IndIPD=      1 C=  2.678389D-01  0.000000D+00                             NZ=T
 IS=     9 IAt=     7 ISR=     1 T=0 IP=      3 IndIP=     27 IndIPD=      2 C=  8.347367D-02  0.000000D+00                             NZ=T
 IS=    10 IAt=     8 ISR=     1 T=0 IP=      1 IndIP=     28 IndIPD=      0 C=  2.769344D-01  0.000000D+00                             NZ=T
 IS=    10 IAt=     8 ISR=     1 T=0 IP=      2 IndIP=     29 IndIPD=      1 C=  2.678389D-01  0.000000D+00                             NZ=T
 IS=    10 IAt=     8 ISR=     1 T=0 IP=      3 IndIP=     30 IndIPD=      2 C=  8.347367D-02  0.000000D+00                             NZ=T
 IExCor=  404 DFT=T Ex=B Corr=P86 ExCW=0 ScaHFX=  0.000000
 ScaDFX=  1.000000  1.000000  1.000000  1.000000 ScalE2=  1.000000  1.000000
 IRadAn=      5 IRanWt=     -1 IRanGd=            0 ICorTp=0 IEmpDi=  4
 NAtoms=    8 NActive=    8 NUniq=    8 SFac= 1.00D+00 NAtFMM=   60 NAOKFM=F Big=F
 Integral buffers will be    131072 words long.
 Raffenetti 2 integral format.
 Two-electron integral symmetry is turned off.
 Background charge distribution read from rwf.
 PtFMM for NChg=        25 BoxLen=    40.00 Levels= 0 LMax=20 SMax=    10.4 ICnFMM=     1:
 Self energy of the charges =        -0.6726897377 a.u.
 MM   energy of the charges =         0.0000000000 a.u.
 Nuclei-charges interaction =        -1.4707838849 a.u.
 Nuclear repulsion after external point charges =       47.0646698178 Hartrees.
 Leave Link  301 at Fri May 22 12:39:20 2026, MaxMem=   131072000 cpu:               0.0 elap:               0.0
 (Enter /afs/math/software/gaussian/g16.A03/g16/l302.exe)
 NPDir=0 NMtPBC=     1 NCelOv=     1 NCel=       1 NClECP=     1 NCelD=      1
         NCelK=      1 NCelE2=     1 NClLst=     1 CellRange=     0.0.
 One-electron integrals computed using PRISM.
 Entering OneElI...
 Calculate overlap and kinetic energy integrals
    NBasis =  16  MinDer = 0  MaxDer = 0
 Requested accuracy = 0.1000D-12
 PrmmSu-InSpLW:  IPartL=    0 NPrtUS=    1 NPrtUL=    1 DoSpLW=F IThBeg=    0 IThEnd=    0 NThAct=    1.
 PrsmSu:  NPrtUS=   1 ThrOK=F IAlg=1 NPAlg=1 LenDen=           0 ISkipM=0 DoSpLW=F IThBeg=    0 IThEnd=    0.
 Prism:   IPart=     0 DynPar=F LinDyn=F Incr=           1.
 PRISM was handed   131062193 working-precision words and    55 shell-pairs
 IPart=  0 NShTot=          55 NBatch=           5 AvBLen=        11.0
 PrSmSu:  NxtVal=              2.
 *** Overlap *** 
                1             2             3             4             5 
      1  0.100000D+01
      2  0.235038D+00  0.100000D+01
      3  0.000000D+00  0.000000D+00  0.100000D+01
      4  0.000000D+00  0.000000D+00  0.000000D+00  0.100000D+01
      5  0.000000D+00  0.000000D+00  0.000000D+00  0.000000D+00  0.100000D+01
      6  0.579519D-01  0.492803D+00 -0.710194D-01 -0.326062D+00 -0.284544D+00
      7  0.556105D-01  0.482016D+00 -0.278531D+00  0.317606D+00 -0.925642D-01
      8  0.594511D-01  0.499544D+00  0.414049D+00  0.152851D+00 -0.280313D-01
      9  0.000000D+00  0.245053D-01 -0.824662D-02 -0.128810D-01  0.389480D-01
     10  0.255379D-01  0.293476D+00 -0.606175D-01 -0.946832D-01  0.286291D+00
     11  0.837370D-02  0.698905D-01  0.142037D+00 -0.285185D-01  0.862307D-01
     12  0.130795D-01  0.109167D+00 -0.285185D-01  0.115749D+00  0.134690D+00
     13 -0.395482D-01 -0.330087D+00  0.862307D-01  0.134690D+00 -0.246965D+00
     14  0.591091D-02  0.977267D-01  0.203301D-01 -0.714854D-01  0.900123D-01
     15  0.563302D-02  0.940798D-01 -0.697456D-01 -0.450928D-01  0.764689D-01
     16  0.490245D-02  0.843444D-01 -0.773473D-02  0.164190D-01  0.100928D+00
                6             7             8             9            10 
      6  0.100000D+01
      7  0.205252D+00  0.100000D+01
      8  0.200063D+00  0.201645D+00  0.100000D+01
      9  0.722330D-02  0.758173D-02  0.727868D-02  0.100000D+01
     10  0.119720D+00  0.124011D+00  0.120386D+00  0.248362D+00  0.100000D+01
     11  0.900914D-02 -0.290141D-01  0.909559D-01  0.000000D+00  0.000000D+00
     12 -0.226097D-01  0.924959D-01  0.589281D-01  0.000000D+00  0.000000D+00
     13 -0.148259D+00 -0.120786D+00 -0.105094D+00  0.000000D+00  0.000000D+00
     14  0.683322D-01  0.245293D-01  0.664296D-01  0.710100D-01  0.523543D+00
     15  0.694978D-01  0.686937D-01  0.236547D-01  0.701399D-01  0.520425D+00
     16  0.211401D-01  0.622837D-01  0.604860D-01  0.663718D-01  0.506558D+00
               11            12            13            14            15 
     11  0.100000D+01
     12  0.000000D+00  0.100000D+01
     13  0.000000D+00  0.000000D+00  0.100000D+01
     14  0.299905D+00 -0.370223D+00  0.947750D-01  0.100000D+01
     15 -0.452935D+00 -0.170525D+00  0.120604D-01  0.198960D+00  0.100000D+01
     16  0.577532D-01  0.351146D+00  0.316828D+00  0.183594D+00  0.182505D+00
               16 
     16  0.100000D+01
 *** Kinetic Energy *** 
                1             2             3             4             5 
      1  0.219908D+02
      2 -0.128416D+00  0.606994D+00
      3  0.000000D+00  0.000000D+00  0.189936D+01
      4  0.000000D+00  0.000000D+00  0.000000D+00  0.189936D+01
      5  0.000000D+00  0.000000D+00  0.000000D+00  0.000000D+00  0.189936D+01
      6 -0.637094D-02  0.121574D+00 -0.456150D-01 -0.209426D+00 -0.182760D+00
      7 -0.727638D-02  0.114663D+00 -0.173589D+00  0.197941D+00 -0.576887D-01
      8 -0.574064D-02  0.125982D+00  0.270894D+00  0.100004D+00 -0.183396D-01
      9 -0.207738D-05 -0.114096D-01  0.262315D-02  0.409731D-02 -0.123889D-01
     10 -0.666164D-02  0.223651D-01 -0.205093D-01 -0.320351D-01  0.968635D-01
     11 -0.201612D-02  0.232172D-01  0.349290D-01 -0.179135D-01  0.541645D-01
     12 -0.314913D-02  0.362647D-01 -0.179135D-01  0.184170D-01  0.846038D-01
     13  0.952194D-02 -0.109653D+00  0.541645D-01  0.846038D-01 -0.209417D+00
     14 -0.209230D-02 -0.167444D-01 -0.253505D-03  0.891382D-03 -0.112240D-02
     15 -0.205196D-02 -0.167761D-01  0.139110D-02  0.899392D-03 -0.152520D-02
     16 -0.194339D-02 -0.167068D-01  0.316501D-03 -0.671859D-03 -0.412992D-02
                6             7             8             9            10 
      6  0.760032D+00
      7 -0.487452D-03  0.760032D+00
      8 -0.131676D-02 -0.106750D-02  0.760032D+00
      9 -0.262392D-02 -0.268016D-02 -0.263261D-02  0.158911D+02
     10 -0.139520D-01 -0.136580D-01 -0.139085D-01 -0.858900D-01  0.472250D+00
     11  0.306960D-03 -0.118514D-02  0.319570D-02  0.000000D+00  0.000000D+00
     12 -0.770362D-03  0.377820D-02  0.207042D-02  0.000000D+00  0.000000D+00
     13 -0.505148D-02 -0.493375D-02 -0.369244D-02  0.000000D+00  0.000000D+00
     14 -0.114002D-01 -0.786260D-02 -0.113637D-01 -0.784100D-02  0.126168D+00
     15 -0.114188D-01 -0.114062D-01 -0.770822D-02 -0.815742D-02  0.124271D+00
     16 -0.723514D-02 -0.112569D-01 -0.111983D-01 -0.940586D-02  0.115990D+00
               11            12            13            14            15 
     11  0.147773D+01
     12  0.000000D+00  0.147773D+01
     13  0.000000D+00  0.000000D+00  0.147773D+01
     14  0.183254D+00 -0.226221D+00  0.579112D-01  0.760032D+00
     15 -0.274500D+00 -0.103346D+00  0.730921D-02 -0.148878D-02  0.760032D+00
     16  0.337244D-01  0.205048D+00  0.185009D+00 -0.373120D-02 -0.387933D-02
               16 
     16  0.760032D+00
 Entering OneElI...
 Calculate potential energy integrals
    NBasis =  16  MinDer = 0  MaxDer = 0
 Requested accuracy = 0.1000D-12
 PrmmSu-InSpLW:  IPartL=    0 NPrtUS=    1 NPrtUL=    1 DoSpLW=F IThBeg=    0 IThEnd=    0 NThAct=    1.
 PrsmSu:  NPrtUS=   1 ThrOK=F IAlg=1 NPAlg=1 LenDen=           0 ISkipM=0 DoSpLW=F IThBeg=    0 IThEnd=    0.
 Prism:   IPart=     0 DynPar=F LinDyn=F Incr=          13.
 PRISM was handed   131061379 working-precision words and    55 shell-pairs
 IPart=  0 NShTot=        1375 NBatch=          55 AvBLen=        25.0
 PrSmSu:  NxtVal=             14.
 ***** Potential Energy ***** 
                1             2             3             4             5 
      1  0.506208D+02
      2  0.647530D+01  0.112627D+02
      3 -0.793921D-02 -0.105193D+00  0.111402D+02
      4 -0.129005D-01 -0.168255D+00  0.222834D-01  0.111437D+02
      5  0.378024D-01  0.494295D+00 -0.431837D-01 -0.661713D-01  0.113340D+02
      6  0.163123D+01  0.467504D+01 -0.659760D+00 -0.290819D+01 -0.230788D+01
      7  0.156439D+01  0.455650D+01 -0.245867D+01  0.269832D+01 -0.628304D+00
      8  0.167407D+01  0.474823D+01  0.358816D+01  0.127750D+01 -0.645906D-01
      9  0.000000D+00  0.536490D+00 -0.181471D+00 -0.283516D+00  0.857127D+00
     10  0.718263D+00  0.306963D+01 -0.637870D+00 -0.998386D+00  0.301326D+01
     11  0.235585D+00  0.754961D+00  0.126790D+01 -0.294940D+00  0.892550D+00
     12  0.367972D+00  0.117589D+01 -0.293709D+00  0.996576D+00  0.138906D+01
     13 -0.111265D+01 -0.356302D+01  0.891817D+00  0.139373D+01 -0.275296D+01
     14  0.165729D+00  0.932610D+00  0.136785D+00 -0.627481D+00  0.868844D+00
     15  0.157890D+00  0.897230D+00 -0.594938D+00 -0.410921D+00  0.753393D+00
     16  0.137284D+00  0.803015D+00 -0.879384D-01  0.924458D-01  0.938894D+00
                6             7             8             9            10 
      6  0.752119D+01
      7  0.167729D+01  0.745616D+01
      8  0.165281D+01  0.165511D+01  0.755175D+01
      9  0.158483D+00  0.166372D+00  0.159700D+00  0.384222D+02
     10  0.110030D+01  0.113173D+01  0.110835D+01  0.537679D+01  0.989470D+01
     11  0.113966D+00 -0.182007D+00  0.757253D+00  0.127822D-01  0.150895D+00
     12 -0.110176D+00  0.787650D+00  0.529782D+00  0.171613D-01  0.208914D+00
     13 -0.136545D+01 -0.114746D+01 -0.103111D+01 -0.577363D-01 -0.678683D+00
     14  0.532516D+00  0.225855D+00  0.520739D+00  0.156232D+01  0.450345D+01
     15  0.537217D+00  0.531162D+00  0.218215D+00  0.154245D+01  0.445624D+01
     16  0.194505D+00  0.479729D+00  0.469617D+00  0.145756D+01  0.430409D+01
               11            12            13            14            15 
     11  0.973535D+01
     12  0.263422D-01  0.976243D+01
     13 -0.678941D-01 -0.102897D+00  0.100552D+02
     14  0.246166D+01 -0.290218D+01  0.525965D+00  0.723873D+01
     15 -0.357094D+01 -0.129452D+01 -0.135788D+00  0.155130D+01  0.718175D+01
     16  0.510800D+00  0.285977D+01  0.230266D+01  0.142990D+01  0.141426D+01
               16 
     16  0.712333D+01
 ****** Core Hamiltonian ****** 
                1             2             3             4             5 
      1 -0.286301D+02
      2 -0.660372D+01 -0.106557D+02
      3  0.793921D-02  0.105193D+00 -0.924081D+01
      4  0.129005D-01  0.168255D+00 -0.222834D-01 -0.924432D+01
      5 -0.378024D-01 -0.494295D+00  0.431837D-01  0.661713D-01 -0.943464D+01
      6 -0.163760D+01 -0.455347D+01  0.614145D+00  0.269876D+01  0.212512D+01
      7 -0.157167D+01 -0.444184D+01  0.228508D+01 -0.250037D+01  0.570616D+00
      8 -0.167981D+01 -0.462224D+01 -0.331726D+01 -0.117750D+01  0.462510D-01
      9 -0.251016D-05 -0.547900D+00  0.184094D+00  0.287614D+00 -0.869516D+00
     10 -0.724925D+00 -0.304727D+01  0.617360D+00  0.966351D+00 -0.291639D+01
     11 -0.237601D+00 -0.731744D+00 -0.123297D+01  0.277027D+00 -0.838386D+00
     12 -0.371121D+00 -0.113963D+01  0.275795D+00 -0.978159D+00 -0.130446D+01
     13  0.112217D+01  0.345336D+01 -0.837653D+00 -0.130913D+01  0.254354D+01
     14 -0.167821D+00 -0.949354D+00 -0.137039D+00  0.628373D+00 -0.869967D+00
     15 -0.159942D+00 -0.914006D+00  0.596329D+00  0.411820D+00 -0.754918D+00
     16 -0.139227D+00 -0.819721D+00  0.882549D-01 -0.931177D-01 -0.943024D+00
                6             7             8             9            10 
      6 -0.676116D+01
      7 -0.167778D+01 -0.669613D+01
      8 -0.165412D+01 -0.165618D+01 -0.679172D+01
      9 -0.161107D+00 -0.169052D+00 -0.162332D+00 -0.225311D+02
     10 -0.111425D+01 -0.114538D+01 -0.112226D+01 -0.546268D+01 -0.942245D+01
     11 -0.113659D+00  0.180822D+00 -0.754058D+00 -0.127822D-01 -0.150895D+00
     12  0.109405D+00 -0.783872D+00 -0.527711D+00 -0.171613D-01 -0.208914D+00
     13  0.136040D+01  0.114253D+01  0.102741D+01  0.577363D-01  0.678683D+00
     14 -0.543916D+00 -0.233718D+00 -0.532103D+00 -0.157016D+01 -0.437728D+01
     15 -0.548635D+00 -0.542568D+00 -0.225923D+00 -0.155060D+01 -0.433197D+01
     16 -0.201740D+00 -0.490985D+00 -0.480815D+00 -0.146696D+01 -0.418810D+01
               11            12            13            14            15 
     11 -0.825762D+01
     12 -0.263422D-01 -0.828471D+01
     13  0.678941D-01  0.102897D+00 -0.857751D+01
     14 -0.227840D+01  0.267596D+01 -0.468053D+00 -0.647870D+01
     15  0.329644D+01  0.119117D+01  0.143097D+00 -0.155279D+01 -0.642172D+01
     16 -0.477075D+00 -0.265472D+01 -0.211765D+01 -0.143363D+01 -0.141814D+01
               16 
     16 -0.636330D+01
 SVDSVc IOpt=   1 NormSV=T IR=1
 SVDSVc V= 2.56D+00 2.01D+00 1.64D+00 1.63D+00 1.37D+00 1.26D+00 1.25D+00 9.83D-01 9.64D-01 4.35D-01
 SVDSVc V= 3.94D-01 3.80D-01 3.34D-01 3.31D-01 2.68D-01 1.98D-01
 TstOVc:  Largest diagonal error= 2.00D-15 IB=1 I=    5.
 TstOVc:  Largest same sym error= 1.77D-15 IB=1 I=   10 J=    9.
 Orthogonalized basis functions: 
                 1             2             3             4             5 
      1   0.729106D-01  0.950079D-01  0.146968D-02  0.350444D-02  0.335552D-01
      2   0.290482D+00  0.260612D+00  0.321660D-02  0.604933D-02  0.438609D-01
      3  -0.143097D-01  0.298917D-01  0.257863D+00  0.311374D+00 -0.129343D+00
      4  -0.194067D-01  0.588583D-01  0.277214D+00 -0.255287D+00 -0.135639D+00
      5   0.523527D-01 -0.149678D+00  0.146357D+00 -0.244272D-01  0.567209D+00
      6   0.185509D+00  0.198947D+00 -0.225709D+00  0.107574D+00 -0.157522D+00
      7   0.183701D+00  0.201153D+00  0.695381D-02 -0.254526D+00 -0.813235D-01
      8   0.183155D+00  0.206358D+00  0.220032D+00  0.140025D+00 -0.126189D+00
      9   0.798906D-01 -0.104598D+00  0.684811D-02 -0.395712D-02  0.613147D-01
     10   0.299050D+00 -0.258814D+00  0.155544D-01 -0.912992D-02  0.725678D-01
     11   0.123833D-01  0.435410D-01  0.281476D+00  0.354757D+00  0.120534D+00
     12   0.141691D-01  0.854407D-01  0.320371D+00 -0.305871D+00  0.142721D+00
     13  -0.715404D-01 -0.207177D+00  0.178577D+00 -0.383727D-01 -0.503183D+00
     14   0.182492D+00 -0.220803D+00 -0.124592D-01  0.295010D+00 -0.587723D-01
     15   0.181198D+00 -0.218525D+00 -0.239574D+00 -0.159522D+00 -0.922120D-01
     16   0.168336D+00 -0.212693D+00  0.272643D+00 -0.147135D+00 -0.123390D+00
                 6             7             8             9            10 
      1  -0.406380D-02 -0.141307D-01  0.886861D+00  0.412974D+00 -0.503380D-01
      2  -0.480223D-02 -0.122514D-01  0.392384D-01 -0.124361D-01  0.136896D+00
      3   0.316962D+00 -0.369425D+00 -0.191578D-01  0.199095D-01 -0.894231D-01
      4   0.361441D+00  0.359303D+00 -0.157574D-01  0.496527D-01 -0.371690D+00
      5   0.148109D+00 -0.188713D-01  0.620881D-01 -0.133986D+00  0.873719D+00
      6  -0.314876D+00 -0.155954D+00 -0.112332D+00 -0.454743D-01  0.212778D+00
      7   0.199333D-01  0.376248D+00 -0.103426D+00 -0.430292D-01  0.380334D+00
      8   0.305740D+00 -0.174566D+00 -0.111822D+00 -0.460830D-01  0.211796D+00
      9  -0.699842D-02 -0.131152D-01 -0.402449D+00  0.895382D+00  0.781663D-01
     10  -0.915401D-02 -0.135460D-01 -0.241034D-01 -0.113555D-01 -0.191874D+00
     11  -0.278562D+00  0.311165D+00 -0.247053D-01 -0.920270D-02 -0.172840D+00
     12  -0.287180D+00 -0.282197D+00 -0.466743D-01 -0.219604D-01 -0.348754D+00
     13  -0.127886D+00  0.249194D-01  0.119606D+00  0.488224D-01  0.891744D+00
     14   0.106314D-01  0.335729D+00  0.538556D-01 -0.102190D+00 -0.256742D+00
     15   0.290623D+00 -0.171314D+00  0.533659D-01 -0.107313D+00 -0.205874D+00
     16  -0.289268D+00 -0.143461D+00  0.583035D-01 -0.116309D+00 -0.191827D+00
                11            12            13            14            15 
      1   0.161454D-01 -0.130342D-01 -0.391026D-02 -0.812936D-02 -0.299754D+00
      2  -0.476107D-01  0.399306D-01  0.117710D-01  0.302474D-01  0.141323D+01
      3   0.533907D+00 -0.792716D+00  0.102150D+00 -0.386247D+00  0.881189D-01
      4  -0.752512D+00 -0.431715D+00  0.384517D+00 -0.111745D-01  0.707059D-01
      5  -0.274322D+00 -0.266796D+00  0.161741D+00 -0.831770D-01 -0.219392D+00
      6  -0.705423D+00 -0.678438D+00  0.306967D+00 -0.115343D+00 -0.587617D+00
      7   0.929684D+00 -0.268455D+00 -0.127585D+00 -0.187854D+00 -0.528613D+00
      8  -0.263862D+00  0.925728D+00 -0.182983D+00  0.263758D+00 -0.644672D+00
      9   0.356299D-03  0.595602D-02  0.279154D-01 -0.456017D-03 -0.817049D-01
     10  -0.248219D-02 -0.160409D-01 -0.968778D-01  0.304618D-02  0.408855D+00
     11   0.118698D+00 -0.273880D+00 -0.469095D-01  0.105950D+01 -0.976715D-01
     12  -0.151750D+00 -0.206075D+00 -0.998511D+00 -0.161347D+00 -0.159040D+00
     13  -0.174935D+00 -0.907556D-01 -0.407850D+00  0.173449D+00  0.363353D+00
     14  -0.209836D+00  0.643036D-01 -0.586923D+00 -0.826586D+00 -0.263343D+00
     15   0.800085D-01 -0.371764D+00 -0.308922D+00  0.934362D+00 -0.274865D+00
     16   0.244342D+00  0.290999D+00  0.102596D+01 -0.117290D+00 -0.230335D+00
                16 
      1   0.131588D+00
      2  -0.700196D+00
      3   0.503700D-01
      4   0.860933D-01
      5  -0.228852D+00
      6   0.186363D+00
      7   0.169532D+00
      8   0.182505D+00
      9  -0.315670D+00
     10   0.168705D+01
     11  -0.215988D-01
     12  -0.143457D+00
     13   0.439421D-01
     14  -0.743735D+00
     15  -0.715353D+00
     16  -0.590910D+00
 NBasis=    16 RedAO= T EigKep=  1.98D-01  NBF=    16
 NBsUse=    16 1.00D-06 EigRej= -1.00D+00 NBFU=    16
 Precomputing XC quadrature grid using
 IXCGrd= 4 IRadAn=           5 IRanWt=          -1 IRanGd=           0 AccXCQ= 0.00D+00.
 SetAtRh:  ITypeU=  23 NETotI=       0 ICharg=  1 NETot=       0.
 StAtR1:  I=    1 I1=    1 IA=  7 C=   7.0 OKShel=TTT
                                                  SSP
                                                  223
 StAtR1:  I=    2 I1=    2 IA=  1 C=   1.0 OKShel=T
                                                  S
                                                  1
 StAtR1:  I=    3 I1=    3 IA=  1 C=   1.0 OKShel=T
                                                  S
                                                  1
 StAtR1:  I=    4 I1=    4 IA=  1 C=   1.0 OKShel=T
                                                  S
                                                  1
 StAtR1:  I=    5 I1=    5 IA=  6 C=   6.0 OKShel=TTT
                                                  SSP
                                                  222
 StAtR1:  I=    6 I1=    6 IA=  1 C=   1.0 OKShel=T
                                                  S
                                                  1
 StAtR1:  I=    7 I1=    7 IA=  1 C=   1.0 OKShel=T
                                                  S
                                                  1
 StAtR1:  I=    8 I1=    8 IA=  1 C=   1.0 OKShel=T
                                                  S
                                                  1
          I=    1 IA=  7 I1=    1 NAtG= 0 NE=   7.000 C=   0.000 Err=-7.00D+00
          I=    2 IA=  1 I1=    2 NAtG= 0 NE=   1.000 C=   0.000 Err=-1.00D+00
          I=    3 IA=  1 I1=    3 NAtG= 0 NE=   1.000 C=   0.000 Err=-1.00D+00
          I=    4 IA=  1 I1=    4 NAtG= 0 NE=   1.000 C=   0.000 Err=-1.00D+00
          I=    5 IA=  6 I1=    5 NAtG= 0 NE=   6.000 C=   0.000 Err=-6.00D+00
          I=    6 IA=  1 I1=    6 NAtG= 0 NE=   1.000 C=   0.000 Err=-1.00D+00
          I=    7 IA=  1 I1=    7 NAtG= 0 NE=   1.000 C=   0.000 Err=-1.00D+00
          I=    8 IA=  1 I1=    8 NAtG= 0 NE=   1.000 C=   0.000 Err=-1.00D+00
 Generated NRdTot=       0 NPtTot=           0 NUsed=           0 NTot=          32
 NSgBfM=    16    16    16    16    16 MxSgAt=     8 MxSgA2=     8.
 IGWInf( 1) =          32 (NGWInf)
 IGWInf( 2) =           8 (NAtomA)
 IGWInf( 3) =           5 (IRadAn)
 IGWInf( 4) =          -1 (IRanWt)
 IGWInf( 5) =           0 (IRanGd)
 IGWInf( 6) =           2 (IRType)
 IGWInf( 7) =           0 (NRdTot)
 IGWInf( 8) =           0 (NGWTot)
 IGWInf( 9) =      173132 (LGWBtD)
 IGWInf(10) =           0 (NAtBtD)
 IGWInf(11) =           0 (NIRBtD)
 IGWInf(12) =           0 (NRRBtD)
 IGWInf(13) =           1 (NClRep)
 IGWInf(14) =           0 (ICntr3)
 IGWInf(15) =           0 (IPFlag)
 IGWInf(16) =           0 (IGet)  
 IGWInf(17) =           0         
 IGWInf(18) =          16         
 IGWInf(19) =          16         
 IGWInf(20) =          16         
 IGWInf(21) =          16         
 IGWInf(22) =          16         
 IGWInf(23) =           8         
 IGWInf(24) =           8         
 IGWInf(25) =           0         
 IGWInf(26) =           0         
 IGWInf(27) =           0         
 IGWInf(28) =           0         
 IGWInf(29) =           0         
 IGWInf(30) =           0         
 IGWInf(31) =           0         
 IGWInf(32) =           0         
 IAtBtD: 
              1            2            3            4            5
              6            7            8
 Leave Link  302 at Fri May 22 12:39:20 2026, MaxMem=   131072000 cpu:               0.1 elap:               0.1
 (Enter /afs/math/software/gaussian/g16.A03/g16/l303.exe)
 DipDrv:  MaxL=1.
 DipPsm:  J= 1 NJ= 4 MaxL=1 MMat= 4 MaxMat= 4.
 DipInt: DoE/N= T F RetVal/Mat= F T Init=T NMatP=  4 IDeriv=0 Min/MaxMlt=  0  1
 Entering OneElI...
 Multipole integrals L=0 to 1 MinM= 0 MaxM= 3.
 Requested accuracy = 0.1000D-12
 PrmmSu-InSpLW:  IPartL=    0 NPrtUS=    1 NPrtUL=    1 DoSpLW=F IThBeg=    0 IThEnd=    0 NThAct=    1.
 PrsmSu:  NPrtUS=   1 ThrOK=F IAlg=1 NPAlg=1 LenDen=           0 ISkipM=0 DoSpLW=F IThBeg=    0 IThEnd=    0.
 Prism:   IPart=     0 DynPar=F LinDyn=F Incr=           1.
 PRISM was handed   131062633 working-precision words and    55 shell-pairs
 IPart=  0 NShTot=          55 NBatch=           6 AvBLen=         9.2
 PrSmSu:  NxtVal=              2.
 Multipole matrices IBuc=  518 IX=    1 IJ=           1:
                1             2             3             4             5 
      1  0.904510D+02
      2  0.212594D+02  0.904510D+02
      3  0.579343D-01  0.739815D+00  0.904510D+02
      4  0.000000D+00  0.000000D+00  0.000000D+00  0.904510D+02
      5  0.000000D+00  0.000000D+00  0.000000D+00  0.000000D+00  0.904510D+02
      6  0.524091D+01  0.445012D+02 -0.607531D+01 -0.294443D+02 -0.256951D+02
      7  0.502658D+01  0.433093D+02 -0.246962D+02  0.285376D+02 -0.831709D+01
      8  0.538275D+01  0.456100D+02  0.381454D+02  0.139553D+02 -0.255926D+01
      9  0.326406D-05  0.220406D+01 -0.740119D+00 -0.115861D+01  0.350326D+01
     10  0.230942D+01  0.264748D+02 -0.526300D+01 -0.854312D+01  0.258316D+02
     11  0.758401D+00  0.649242D+01  0.128202D+02 -0.263413D+01  0.796473D+01
     12  0.118273D+01  0.984505D+01 -0.249845D+01  0.104413D+02  0.121490D+02
     13 -0.357620D+01 -0.297682D+02  0.755448D+01  0.121490D+02 -0.222754D+02
     14  0.534750D+00  0.886625D+01  0.191383D+01 -0.648567D+01  0.816657D+01
     15  0.509164D+00  0.841760D+01 -0.617300D+01 -0.403424D+01  0.684132D+01
     16  0.443393D+00  0.761878D+01 -0.638585D+00  0.148311D+01  0.911669D+01
                6             7             8             9            10 
      6  0.901403D+02
      7  0.184043D+02  0.891940D+02
      8  0.182426D+02  0.182914D+02  0.922283D+02
      9  0.649500D+00  0.681472D+00  0.655023D+00  0.899091D+02
     10  0.107772D+02  0.111071D+02  0.109577D+02  0.223300D+02  0.899091D+02
     11  0.896950D+00 -0.250979D+01  0.836404D+01  0.718555D-01  0.838744D+00
     12 -0.203530D+01  0.828487D+01  0.536286D+01  0.000000D+00  0.000000D+00
     13 -0.133460D+02 -0.108188D+02 -0.956428D+01  0.000000D+00  0.000000D+00
     14  0.619279D+01  0.221143D+01  0.608972D+01  0.639018D+01  0.474039D+02
     15  0.619268D+01  0.608853D+01  0.213248D+01  0.629762D+01  0.462875D+02
     16  0.190571D+01  0.558519D+01  0.551575D+01  0.596849D+01  0.456090D+02
               11            12            13            14            15 
     11  0.899091D+02
     12  0.000000D+00  0.899091D+02
     13  0.000000D+00  0.000000D+00  0.899091D+02
     14  0.275280D+02 -0.335154D+02  0.857974D+01  0.911152D+02
     15 -0.399206D+02 -0.151712D+02  0.107299D+01  0.178255D+02  0.880721D+02
     16  0.556520D+01  0.316150D+02  0.285252D+02  0.166398D+02  0.162634D+02
               16 
     16  0.901526D+02
 Multipole matrices IBuc=  518 IX=    2 IJ=           1:
                1             2             3             4             5 
      1  0.161792D+03
      2  0.380273D+02  0.161792D+03
      3  0.000000D+00  0.000000D+00  0.161792D+03
      4  0.579343D-01  0.739815D+00  0.000000D+00  0.161792D+03
      5  0.000000D+00  0.000000D+00  0.000000D+00  0.000000D+00  0.161792D+03
      6  0.937204D+01  0.793951D+02 -0.114420D+02 -0.521944D+02 -0.458433D+02
      7  0.900127D+01  0.783166D+02 -0.452544D+02  0.519335D+02 -0.150394D+02
      8  0.962070D+01  0.809795D+02  0.671198D+02  0.251207D+02 -0.454404D+01
      9  0.584037D-05  0.394529D+01 -0.132775D+01 -0.207227D+01  0.627083D+01
     10  0.413104D+01  0.473722D+02 -0.978637D+01 -0.150797D+02  0.462201D+02
     11  0.135447D+01  0.112785D+02  0.229258D+02 -0.455555D+01  0.139176D+02
     12  0.211686D+01  0.178062D+02 -0.464242D+01  0.186952D+02  0.219257D+02
     13 -0.639706D+01 -0.532672D+02  0.139176D+02  0.215155D+02 -0.398588D+02
     14  0.955980D+00  0.157173D+02  0.326951D+01 -0.114270D+02  0.144759D+02
     15  0.911153D+00  0.151619D+02 -0.112399D+02 -0.720011D+01  0.123233D+02
     16  0.793258D+00  0.136680D+02 -0.125343D+01  0.272082D+01  0.163556D+02
                6             7             8             9            10 
      6  0.160366D+03
      7  0.332088D+02  0.163226D+03
      8  0.322916D+02  0.328352D+02  0.162448D+03
      9  0.116241D+01  0.122087D+01  0.117186D+01  0.160946D+03
     10  0.192351D+02  0.200948D+02  0.194624D+02  0.399729D+02  0.160946D+03
     11  0.144751D+01 -0.470106D+01  0.147037D+02  0.000000D+00  0.000000D+00
     12 -0.354678D+01  0.150758D+02  0.961258D+01  0.718555D-01  0.838744D+00
     13 -0.238209D+02 -0.195705D+02 -0.169892D+02  0.000000D+00  0.000000D+00
     14  0.109271D+02  0.395760D+01  0.106920D+02  0.114217D+02  0.838513D+02
     15  0.111412D+02  0.111105D+02  0.381672D+01  0.112855D+02  0.835707D+02
     16  0.341192D+01  0.101414D+02  0.982517D+01  0.106887D+02  0.819224D+02
               11            12            13            14            15 
     11  0.160946D+03
     12  0.000000D+00  0.160946D+03
     13  0.000000D+00  0.000000D+00  0.160946D+03
     14  0.480396D+02 -0.589250D+02  0.151813D+02  0.159457D+03
     15 -0.727374D+02 -0.270089D+02  0.193680D+01  0.318048D+02  0.160254D+03
     16  0.933889D+01  0.571469D+02  0.512321D+02  0.295478D+02  0.294453D+02
               16 
     16  0.162426D+03
 Multipole matrices IBuc=  518 IX=    3 IJ=           1:
                1             2             3             4             5 
      1  0.588096D+02
      2  0.138225D+02  0.588096D+02
      3  0.000000D+00  0.000000D+00  0.588096D+02
      4  0.000000D+00  0.000000D+00  0.000000D+00  0.588096D+02
      5  0.579343D-01  0.739815D+00  0.000000D+00  0.000000D+00  0.588096D+02
      6  0.340452D+01  0.286878D+02 -0.413443D+01 -0.189819D+02 -0.162270D+02
      7  0.326929D+01  0.282510D+02 -0.163249D+02  0.186151D+02 -0.509481D+01
      8  0.349594D+01  0.293492D+02  0.243263D+02  0.898033D+01 -0.130426D+01
      9  0.216640D-05  0.150005D+01 -0.504609D+00 -0.788188D+00  0.238486D+01
     10  0.150427D+01  0.175919D+02 -0.362860D+01 -0.566780D+01  0.173440D+02
     11  0.493438D+00  0.419871D+01  0.851819D+01 -0.171105D+01  0.522098D+01
     12  0.770740D+00  0.655829D+01 -0.171105D+01  0.694101D+01  0.815505D+01
     13 -0.232927D+01 -0.196406D+02  0.513411D+01  0.801937D+01 -0.148578D+02
     14  0.348070D+00  0.586579D+01  0.122047D+01 -0.429145D+01  0.547301D+01
     15  0.331657D+00  0.563369D+01 -0.417709D+01 -0.270062D+01  0.464657D+01
     16  0.288804D+00  0.509413D+01 -0.467225D+00  0.991810D+00  0.615675D+01
                6             7             8             9            10 
      6  0.575647D+02
      7  0.119001D+02  0.583919D+02
      8  0.116291D+02  0.118044D+02  0.586893D+02
      9  0.442304D+00  0.464474D+00  0.445988D+00  0.613690D+02
     10  0.712877D+01  0.743306D+01  0.723330D+01  0.152417D+02  0.613690D+02
     11  0.536665D+00 -0.173961D+01  0.546651D+01  0.000000D+00  0.000000D+00
     12 -0.134684D+01  0.554582D+01  0.354162D+01  0.000000D+00  0.000000D+00
     13 -0.874565D+01 -0.715300D+01 -0.622979D+01  0.718555D-01  0.838744D+00
     14  0.407652D+01  0.147350D+01  0.400037D+01  0.435962D+01  0.322344D+02
     15  0.413451D+01  0.411509D+01  0.142055D+01  0.430464D+01  0.319514D+02
     16  0.127125D+01  0.377116D+01  0.367131D+01  0.407896D+01  0.314425D+02
               11            12            13            14            15 
     11  0.613690D+02
     12  0.000000D+00  0.613690D+02
     13  0.000000D+00  0.000000D+00  0.613690D+02
     14  0.184635D+02 -0.227926D+02  0.621306D+01  0.617501D+02
     15 -0.278075D+02 -0.104692D+02  0.111638D+01  0.122527D+02  0.614179D+02
     16  0.358373D+01  0.217895D+02  0.200254D+02  0.114245D+02  0.113265D+02
               16 
     16  0.627044D+02
 Fermi contact integrals: 
                 1             2             3             4             5 
      1   0.783766D+01  0.000000D+00  0.000000D+00  0.000000D+00  0.000000D+00
      2   0.260206D+00  0.782835D-01  0.747665D-01  0.805397D-01  0.228226D-01
      3   0.000000D+00 -0.216825D-01 -0.820135D-01  0.129308D+00 -0.781356D-02
      4   0.000000D+00 -0.995480D-01  0.935190D-01  0.477356D-01 -0.122046D-01
      5   0.000000D+00 -0.868725D-01 -0.272555D-01 -0.875421D-02  0.369028D-01
      6   0.717632D-01  0.628247D+00  0.166721D-01  0.160586D-01  0.681122D-02
      7   0.687466D-01  0.166721D-01  0.628247D+00  0.162447D-01  0.715755D-02
      8   0.737005D-01  0.160586D-01  0.162447D-01  0.628247D+00  0.686473D-02
      9   0.000000D+00  0.000000D+00  0.000000D+00  0.000000D+00  0.614289D+01
     10   0.313079D-01  0.594339D-02  0.634130D-02  0.600450D-02  0.215555D+00
     11   0.102700D-01  0.729134D-03 -0.240838D-02  0.739084D-02  0.000000D+00
     12   0.160415D-01 -0.182987D-02  0.767782D-02  0.478835D-02  0.000000D+00
     13  -0.485041D-01 -0.119990D-01 -0.100261D-01 -0.853968D-02  0.000000D+00
     14   0.719585D-02  0.321283D-02  0.605814D-03  0.307365D-02  0.685840D-01
     15   0.685163D-02  0.329904D-02  0.323949D-02  0.569837D-03  0.676982D-01
     16   0.594709D-02  0.471065D-03  0.277707D-02  0.265143D-02  0.638778D-01
                 6             7             8 
      1   0.000000D+00  0.000000D+00  0.000000D+00
      2   0.306082D-02  0.281958D-02  0.222318D-02
      3   0.121773D-02 -0.401758D-02 -0.397333D-03
      4  -0.428181D-02 -0.259749D-02  0.843446D-03
      5   0.539152D-02  0.440486D-02  0.518467D-02
      6   0.321283D-02  0.329904D-02  0.471065D-03
      7   0.605814D-03  0.323949D-02  0.277707D-02
      8   0.307365D-02  0.569837D-03  0.265143D-02
      9   0.114883D-05  0.100061D-05  0.000000D+00
     10   0.849199D-01  0.839053D-01  0.794984D-01
     11   0.918608D-01 -0.137418D+00  0.167931D-01
     12  -0.113399D+00 -0.517364D-01  0.102104D+00
     13   0.290295D-01  0.365908D-02  0.921250D-01
     14   0.628247D+00  0.159293D-01  0.141665D-01
     15   0.159293D-01  0.628247D+00  0.140442D-01
     16   0.141665D-01  0.140442D-01  0.628247D+00
 Leave Link  303 at Fri May 22 12:39:20 2026, MaxMem=   131072000 cpu:               0.0 elap:               0.0
 (Enter /afs/math/software/gaussian/g16.A03/g16/l401.exe)
 Initial guess from the checkpoint file:  "test.1.chk"
 B after Tr=    -0.283556   -0.490412    1.771841
         Rot=    0.999983    0.002562   -0.005205   -0.001080 Ang=   0.68 deg.
 Guess basis will be translated and rotated to current coordinates.
 JPrj=2 DoOrth=T DoCkMO=T.
 Leave Link  401 at Fri May 22 12:39:20 2026, MaxMem=   131072000 cpu:               0.1 elap:               0.1
 (Enter /afs/math/software/gaussian/g16.A03/g16/l502.exe)
 Keep J ints in memory in canonical form, NReq=871357.
 FoFCou: FMM=F IPFlag=           0 FMFlag=           0 FMFlg1=           0
         NFxFlg=           0 DoJE=F BraDBF=F KetDBF=F FulRan=T
         wScrn=  0.000000 ICntrl=       600 IOpCl=  0 I1Cent=           0 NGrid=           0
         NMat0=    1 NMatS0=    136 NMatT0=    0 NMatD0=    1 NMtDS0=    0 NMtDT0=    0
 Symmetry not used in FoFCou.
 Two-electron integral symmetry not used.
 Closed shell SCF:
 Using DIIS extrapolation, IDIIS=  1040.
 NGot=   131072000 LenX=   131061156 LenY=   131060274
 Requested convergence on RMS density matrix=1.00D-08 within 128 cycles.
 Requested convergence on MAX density matrix=1.00D-06.
 Requested convergence on             energy=1.00D-06.
 No special actions if energy rises.

 Cycle   1  Pass 1  IDiag  1:
 E= -95.7740494696931    
 DIIS: error= 4.57D-03 at cycle   1 NSaved=   1.
 NSaved= 1 IEnMin= 1 EnMin= -95.7740494696931     IErMin= 1 ErrMin= 4.57D-03
 ErrMax= 4.57D-03  0.00D+00 EMaxC= 1.00D-01 BMatC= 4.88D-04 BMatP= 4.88D-04
 IDIUse=3 WtCom= 9.54D-01 WtEn= 4.57D-02
 Coeff-Com:  0.100D+01
 Coeff-En:   0.100D+01
 Coeff:      0.100D+01
 Gap=     0.572 Goal=   None    Shift=    0.000
 GapD=    0.572 DampG=2.000 DampE=1.000 DampFc=2.0000 IDamp=-1.
 RMSDP=2.96D-03 MaxDP=1.52D-02              OVMax= 0.00D+00

 Cycle   2  Pass 1  IDiag  1:
 E= -95.7744366968241     Delta-E=       -0.000387227131 Rises=F Damp=F
 DIIS: error= 2.41D-03 at cycle   2 NSaved=   2.
 NSaved= 2 IEnMin= 2 EnMin= -95.7744366968241     IErMin= 2 ErrMin= 2.41D-03
 ErrMax= 2.41D-03  0.00D+00 EMaxC= 1.00D-01 BMatC= 1.57D-04 BMatP= 4.88D-04
 IDIUse=3 WtCom= 9.76D-01 WtEn= 2.41D-02
 Coeff-Com:  0.321D+00 0.679D+00
 Coeff-En:   0.000D+00 0.100D+01
 Coeff:      0.313D+00 0.687D+00
 Gap=     0.555 Goal=   None    Shift=    0.000
 RMSDP=1.37D-03 MaxDP=8.22D-03 DE=-3.87D-04 OVMax= 0.00D+00

 Cycle   3  Pass 1  IDiag  1:
 E= -95.7745759095496     Delta-E=       -0.000139212725 Rises=F Damp=F
 DIIS: error= 1.05D-03 at cycle   3 NSaved=   3.
 NSaved= 3 IEnMin= 3 EnMin= -95.7745759095496     IErMin= 3 ErrMin= 1.05D-03
 ErrMax= 1.05D-03  0.00D+00 EMaxC= 1.00D-01 BMatC= 3.49D-05 BMatP= 1.57D-04
 IDIUse=3 WtCom= 9.89D-01 WtEn= 1.05D-02
 Coeff-Com:  0.200D-01 0.323D+00 0.657D+00
 Coeff-En:   0.000D+00 0.146D+00 0.854D+00
 Coeff:      0.198D-01 0.321D+00 0.660D+00
 Gap=     0.557 Goal=   None    Shift=    0.000
 RMSDP=4.60D-04 MaxDP=2.78D-03 DE=-1.39D-04 OVMax= 0.00D+00

 Cycle   4  Pass 1  IDiag  1:
 E= -95.7746136722191     Delta-E=       -0.000037762669 Rises=F Damp=F
 DIIS: error= 2.27D-04 at cycle   4 NSaved=   4.
 NSaved= 4 IEnMin= 4 EnMin= -95.7746136722191     IErMin= 4 ErrMin= 2.27D-04
 ErrMax= 2.27D-04  0.00D+00 EMaxC= 1.00D-01 BMatC= 6.93D-07 BMatP= 3.49D-05
 IDIUse=3 WtCom= 9.98D-01 WtEn= 2.27D-03
 Coeff-Com:  0.350D-02 0.127D+00 0.290D+00 0.580D+00
 Coeff-En:   0.000D+00 0.000D+00 0.000D+00 0.100D+01
 Coeff:      0.350D-02 0.127D+00 0.289D+00 0.580D+00
 Gap=     0.556 Goal=   None    Shift=    0.000
 RMSDP=7.35D-05 MaxDP=4.11D-04 DE=-3.78D-05 OVMax= 0.00D+00

 Cycle   5  Pass 1  IDiag  1:
 E= -95.7746144455591     Delta-E=       -0.000000773340 Rises=F Damp=F
 DIIS: error= 2.73D-05 at cycle   5 NSaved=   5.
 NSaved= 5 IEnMin= 5 EnMin= -95.7746144455591     IErMin= 5 ErrMin= 2.73D-05
 ErrMax= 2.73D-05  0.00D+00 EMaxC= 1.00D-01 BMatC= 1.97D-08 BMatP= 6.93D-07
 IDIUse=1 WtCom= 1.00D+00 WtEn= 0.00D+00
 Coeff-Com:  0.286D-03 0.325D-01 0.790D-01 0.223D+00 0.665D+00
 Coeff:      0.286D-03 0.325D-01 0.790D-01 0.223D+00 0.665D+00
 Gap=     0.556 Goal=   None    Shift=    0.000
 RMSDP=1.26D-05 MaxDP=8.18D-05 DE=-7.73D-07 OVMax= 0.00D+00

 Cycle   6  Pass 1  IDiag  1:
 E= -95.7746144711839     Delta-E=       -0.000000025625 Rises=F Damp=F
 DIIS: error= 7.04D-07 at cycle   6 NSaved=   6.
 NSaved= 6 IEnMin= 6 EnMin= -95.7746144711839     IErMin= 6 ErrMin= 7.04D-07
 ErrMax= 7.04D-07  0.00D+00 EMaxC= 1.00D-01 BMatC= 1.93D-11 BMatP= 1.97D-08
 IDIUse=1 WtCom= 1.00D+00 WtEn= 0.00D+00
 Coeff-Com:  0.416D-04 0.654D-02 0.160D-01 0.460D-01 0.146D+00 0.786D+00
 Coeff:      0.416D-04 0.654D-02 0.160D-01 0.460D-01 0.146D+00 0.786D+00
 Gap=     0.556 Goal=   None    Shift=    0.000
 RMSDP=5.49D-07 MaxDP=2.87D-06 DE=-2.56D-08 OVMax= 0.00D+00

 Cycle   7  Pass 1  IDiag  1:
 E= -95.7746144712184     Delta-E=       -0.000000000035 Rises=F Damp=F
 DIIS: error= 3.82D-08 at cycle   7 NSaved=   7.
 NSaved= 7 IEnMin= 7 EnMin= -95.7746144712184     IErMin= 7 ErrMin= 3.82D-08
 ErrMax= 3.82D-08  0.00D+00 EMaxC= 1.00D-01 BMatC= 6.43D-14 BMatP= 1.93D-11
 IDIUse=1 WtCom= 1.00D+00 WtEn= 0.00D+00
 Coeff-Com:  0.258D-05 0.543D-03 0.133D-02 0.383D-02 0.128D-01 0.975D-01
 Coeff-Com:  0.884D+00
 Coeff:      0.258D-05 0.543D-03 0.133D-02 0.383D-02 0.128D-01 0.975D-01
 Coeff:      0.884D+00
 Gap=     0.556 Goal=   None    Shift=    0.000
 RMSDP=3.35D-08 MaxDP=2.06D-07 DE=-3.45D-11 OVMax= 0.00D+00

 Cycle   8  Pass 1  IDiag  1:
 E= -95.7746144712186     Delta-E=       -0.000000000000 Rises=F Damp=F
 DIIS: error= 3.46D-09 at cycle   8 NSaved=   8.
 NSaved= 8 IEnMin= 8 EnMin= -95.7746144712186     IErMin= 8 ErrMin= 3.46D-09
 ErrMax= 3.46D-09  0.00D+00 EMaxC= 1.00D-01 BMatC= 4.69D-16 BMatP= 6.43D-14
 IDIUse=1 WtCom= 1.00D+00 WtEn= 0.00D+00
 Coeff-Com:  0.634D-07 0.192D-04 0.466D-04 0.131D-03 0.529D-03 0.656D-02
 Coeff-Com:  0.116D+00 0.876D+00
 Coeff:      0.634D-07 0.192D-04 0.466D-04 0.131D-03 0.529D-03 0.656D-02
 Coeff:      0.116D+00 0.876D+00
 Gap=     0.556 Goal=   None    Shift=    0.000
 RMSDP=2.68D-09 MaxDP=1.23D-08 DE=-1.71D-13 OVMax= 0.00D+00

 SCF Done:  E(RB-P86) =  -95.7746144712     A.U. after    8 cycles
            NFock=  8  Conv=0.27D-08     -V/T= 2.0313
 KE= 9.286697091110D+01 PE=-3.099548560419D+02 EE= 7.424860084181D+01
 Leave Link  502 at Fri May 22 12:39:23 2026, MaxMem=   131072000 cpu:               2.7 elap:               2.7
 (Enter /afs/math/software/gaussian/g16.A03/g16/l601.exe)
 Copying SCF densities to generalized density rwf, IOpCl= 0 IROHF=0.

 **********************************************************************

            Population analysis using the SCF density.

 **********************************************************************

 Alpha  occ. eigenvalues --  -14.22962  -9.98352  -1.10472  -0.81671  -0.71784
 Alpha  occ. eigenvalues --   -0.70020  -0.60435  -0.52997  -0.51003
 Alpha virt. eigenvalues --    0.04632   0.07204   0.08246   0.09552   0.22579
 Alpha virt. eigenvalues --    0.26445   0.32053
     Molecular Orbital Coefficients:
                           1         2         3         4         5
                           O         O         O         O         O
     Eigenvalues --   -14.22962  -9.98352  -1.10472  -0.81671  -0.71784
   1 1   N  1S          0.99186   0.00085  -0.22656   0.05560  -0.00030
   2        2S          0.04064  -0.00725   0.76869  -0.22386  -0.00010
   3        2PX         0.00003   0.00114   0.00306  -0.07451   0.50903
   4        2PY         0.00000   0.00183  -0.00788  -0.09955   0.34715
   5        2PZ        -0.00006  -0.00549   0.00514   0.33183   0.21314
   6 2   H  1S         -0.00804  -0.00033   0.10216  -0.10603  -0.27921
   7 3   H  1S         -0.00775  -0.00044   0.08773  -0.08268  -0.06349
   8 4   H  1S         -0.00819  -0.00038   0.10378  -0.10409   0.34064
   9 5   C  1S          0.00061   0.98992  -0.07492  -0.20684   0.00095
  10        2S         -0.00672   0.04911   0.16550   0.59608  -0.00285
  11        2PX        -0.00109   0.00011   0.01894   0.02101   0.13131
  12        2PY        -0.00156  -0.00065   0.02148  -0.00158   0.09397
  13        2PZ         0.00503  -0.00033  -0.07495  -0.02656   0.06317
  14 6   H  1S          0.00063  -0.01067   0.02147   0.15101   0.00992
  15 7   H  1S          0.00063  -0.01047   0.01953   0.13478  -0.06843
  16 8   H  1S          0.00053  -0.01010   0.02187   0.15961   0.06517
                           6         7         8         9        10
                           O         O         O         O         V
     Eigenvalues --    -0.70020  -0.60435  -0.52997  -0.51003   0.04632
   1 1   N  1S         -0.00568  -0.03071  -0.00385  -0.00119  -0.20058
   2        2S          0.02640   0.14243   0.01883   0.00676   1.35092
   3        2PX        -0.40175  -0.08120  -0.05346  -0.19829   0.01359
   4        2PY         0.50965  -0.19080  -0.22153   0.08188  -0.19919
   5        2PZ         0.10665   0.55700  -0.01772  -0.02296   0.04829
   6 2   H  1S         -0.22772  -0.11112   0.18025  -0.01314  -0.74060
   7 3   H  1S          0.34578  -0.10233  -0.09836   0.17190  -0.38575
   8 4   H  1S         -0.11932  -0.08751  -0.10806  -0.15275  -0.55373
   9 5   C  1S          0.00466   0.05642   0.00853   0.00728   0.04680
  10        2S         -0.01482  -0.16832  -0.03011  -0.02526  -0.23466
  11        2PX        -0.10757   0.07510   0.16940   0.57702  -0.13115
  12        2PY         0.15670   0.10384   0.52727  -0.17734  -0.28702
  13        2PZ         0.01228  -0.43090   0.16475   0.05442   0.59654
  14 6   H  1S         -0.09680  -0.14883  -0.21375   0.38825  -0.10413
  15 7   H  1S          0.01675  -0.13940  -0.24877  -0.36385  -0.06578
  16 8   H  1S          0.05279  -0.22910   0.44432  -0.03531   0.03591
                          11        12        13        14        15
                           V         V         V         V         V
     Eigenvalues --     0.07204   0.08246   0.09552   0.22579   0.26445
   1 1   N  1S          0.04106  -0.02156   0.00686  -0.01195   0.00395
   2        2S         -0.31107   0.12057  -0.06302   0.07799  -0.03011
   3        2PX         0.08949  -0.25253  -0.92560   0.10460  -0.30023
   4        2PY        -0.63344   0.60368  -0.23226   0.33926   0.05558
   5        2PZ         0.68376   0.69001  -0.10006   0.13277  -0.04877
   6 2   H  1S          0.07638   0.89884  -0.39181   0.22883  -0.01907
   7 3   H  1S          0.89287  -0.58355  -0.46573  -0.15204  -0.14873
   8 4   H  1S          0.31586   0.02263   1.06666  -0.20726   0.19810
   9 5   C  1S          0.08594   0.04504   0.02036   0.09782  -0.01383
  10        2S         -0.48708  -0.24866  -0.11938  -0.62788   0.09723
  11        2PX        -0.09363  -0.10861  -0.20244  -0.11887   1.05387
  12        2PY        -0.31880  -0.01057  -0.13047  -0.81343  -0.30578
  13        2PZ         0.51985   0.54688   0.00341  -0.58648   0.13219
  14 6   H  1S         -0.09915   0.12980   0.12897  -0.13512  -0.95854
  15 7   H  1S          0.02740   0.01687  -0.26349  -0.08483   0.84939
  16 8   H  1S          0.17106  -0.24420   0.20683   1.21477  -0.03420
                          16
                           V
     Eigenvalues --     0.32053
   1 1   N  1S          0.03470
   2        2S         -0.23657
   3        2PX         0.07570
   4        2PY         0.13421
   5        2PZ        -0.04826
   6 2   H  1S          0.15862
   7 3   H  1S          0.06610
   8 4   H  1S          0.02441
   9 5   C  1S         -0.21175
  10        2S          1.42667
  11        2PX        -0.22375
  12        2PY        -0.57833
  13        2PZ         0.14068
  14 6   H  1S         -0.90583
  15 7   H  1S         -1.00103
  16 8   H  1S         -0.24838
          Condensed to atoms (all electrons):
               1          2          3          4          5          6
     1  N    6.135298   0.333898   0.326004   0.335737   0.293326  -0.023917
     2  H    0.333898   0.393141  -0.021280  -0.021598  -0.023141  -0.002958
     3  H    0.326004  -0.021280   0.375767  -0.020885  -0.023404   0.002860
     4  H    0.335737  -0.021598  -0.020885   0.389221  -0.023709  -0.002889
     5  C    0.293326  -0.023141  -0.023404  -0.023709   4.751957   0.394006
     6  H   -0.023917  -0.002958   0.002860  -0.002889   0.394006   0.502854
     7  H   -0.021130  -0.002999  -0.003174   0.002713   0.394207  -0.019402
     8  H   -0.020324   0.002583  -0.002926  -0.002543   0.392481  -0.019965
               7          8
     1  N   -0.021130  -0.020324
     2  H   -0.002999   0.002583
     3  H   -0.003174  -0.002926
     4  H    0.002713  -0.002543
     5  C    0.394207   0.392481
     6  H   -0.019402  -0.019965
     7  H    0.474651  -0.017258
     8  H   -0.017258   0.568486
 Mulliken charges:
               1
     1  N   -0.358892
     2  H    0.342355
     3  H    0.367039
     4  H    0.343952
     5  C   -0.155723
     6  H    0.169412
     7  H    0.192391
     8  H    0.099465
 Sum of Mulliken charges =   1.00000
 Mulliken charges with hydrogens summed into heavy atoms:
               1
     1  N    0.694455
     5  C    0.305545
 Electronic spatial extent (au):  <R**2>=         680193.2706
 Charge=              1.0000 electrons
 Dipole moment (field-independent basis, Debye):
    X=            229.4003    Y=            410.9154    Z=            149.9752  Tot=            493.9317
 Quadrupole moment (field-independent basis, Debye-Ang):
   XX=          10945.9563   YY=          35143.7666   ZZ=           4672.8175
   XY=          19625.4360   XZ=           7162.4864   YZ=          12829.8438
 Traceless Quadrupole moment (field-independent basis, Debye-Ang):
   XX=          -5974.8904   YY=          18222.9198   ZZ=         -12248.0293
   XY=          19625.4360   XZ=           7162.4864   YZ=          12829.8438
 Octapole moment (field-independent basis, Debye-Ang**2):
  XXX=         521808.3454  YYY=        3004826.6916  ZZZ=         145257.3976  XYY=        1678491.3595
  XXY=         936448.9522  XXZ=         341739.5169  XZZ=         223153.9153  YZZ=         399725.7360
  YYZ=        1097222.5233  XYZ=         612731.0934
 Hexadecapole moment (field-independent basis, Debye-Ang**3):
 XXXX=       24852235.5544 YYYY=      256842267.6066 ZZZZ=        4504127.4010 XXXY=       44642424.5776
 XXXZ=       16289751.5883 YYYX=      143513987.7978 YYYZ=       93808081.8074 ZZZX=        6936576.9258
 ZZZY=       12425212.6335 XXYY=       80091960.7287 XXZZ=       10646474.0516 YYZZ=       34183236.1353
 XXYZ=       29235240.2524 YYXZ=       52401951.1980 ZZXY=       19089394.8984
 N-N= 4.706466981777D+01 E-N=-3.099548560260D+02  KE= 9.286697091110D+01
 Orbital energies and kinetic energies (alpha):
                                 1                 2
   1         O               -14.229620         21.625061
   2         O                -9.983516         15.565956
   3         O                -1.104723          1.745827
   4         O                -0.816705          1.433863
   5         O                -0.717844          1.225118
   6         O                -0.700199          1.230586
   7         O                -0.604355          1.376128
   8         O                -0.529967          1.103823
   9         O                -0.510028          1.127124
  10         V                 0.046320          2.819338
  11         V                 0.072037          2.550758
  12         V                 0.082463          2.422822
  13         V                 0.095524          2.268294
  14         V                 0.225793          2.375479
  15         V                 0.264450          2.256543
  16         V                 0.320534          2.690597
 Total kinetic energy from orbitals= 9.286697091110D+01
 No NMR shielding tensors so no spin-rotation constants.
 Leave Link  601 at Fri May 22 12:39:23 2026, MaxMem=   131072000 cpu:               0.1 elap:               0.1
 (Enter /afs/math/software/gaussian/g16.A03/g16/l602.exe)
 FitSet:  NAtFit=     8 NAtPot=     8 NAtFrz=     0 MDM=    12 TotChg=   1.00000
 Merz-Kollman atomic radii used.

 **********************************************************************

            Electrostatic Properties Using The SCF Density

 **********************************************************************

       Atomic Center    1 is at  47.864625 85.616753 31.120718
       Atomic Center    2 is at  47.700195 84.861827 30.461917
       Atomic Center    3 is at  47.199430 86.375267 30.899654
       Atomic Center    4 is at  48.805121 85.963948 31.057046
       Atomic Center    5 is at  47.577863 85.168837 32.475069
       Atomic Center    6 is at  48.216070 84.380991 32.676753
       Atomic Center    7 is at  46.605741 84.802844 32.500954
       Atomic Center    8 is at  47.706677 85.952040 33.181729
      Read-in Center  462 is at  46.949827 86.435181 34.366041
      Read-in Center  463 is at  48.860319 87.006109 33.337299
      Read-in Center  464 is at  49.520625 86.781986 32.620870
      Read-in Center  465 is at  49.138733 88.152157 34.199335
      Read-in Center  466 is at  49.290612 87.768206 35.140651
      Read-in Center  467 is at  50.371213 88.896301 33.755399
      Read-in Center  468 is at  50.572240 89.649752 34.398741
      Read-in Center  469 is at  51.168942 88.263054 33.740221
      Read-in Center  470 is at  50.182086 89.417246 32.493718
      Read-in Center  471 is at  50.951938 89.892581 32.219800
      Read-in Center  472 is at  47.959653 89.068047 34.270553
      Read-in Center  473 is at  47.683633 89.607150 33.327082
      Read-in Center  474 is at  47.290000 89.260000 35.250000
      Read-in Center  475 is at  46.542602 86.519646 34.819096
      Read-in Center  476 is at  47.357053 86.350717 33.912987
      Read-in Center  477 is at  49.401312 87.368812 33.273955
      Read-in Center  478 is at  48.319326 86.643406 33.400643
     453 points will be used for fitting atomic charges
 Fitting point charges to electrostatic potential
 Charges from ESP fit, RMS=   0.00175 RRMS=   0.01020:
 ESP charges:
               1
     1  N   -0.186842
     2  H    0.304826
     3  H    0.326789
     4  H    0.302707
     5  C    0.003285
     6  H    0.088582
     7  H    0.114324
     8  H    0.046329
 Sum of ESP charges =   1.00000
 ESP charges with hydrogens summed into heavy atoms:
               1
     1  N    0.747479
     5  C    0.252521
 Charge=   1.00000 Dipole=   229.4047   410.9197   149.9750 Tot=   493.9373
 -----------------------------------------------------------------

              Electrostatic Properties (Atomic Units)

 -----------------------------------------------------------------
    Center     Electric         -------- Electric Field --------
               Potential          X             Y             Z
 -----------------------------------------------------------------
    1 Atom    -17.581283     -0.003734     -0.005450      0.020374
    2 Atom     -0.658385     -0.006893     -0.062597     -0.054558
    3 Atom     -0.645021     -0.033086      0.045321     -0.015620
    4 Atom     -0.659899      0.090262      0.030610     -0.007869
    5 Atom    -14.221293     -0.005813     -0.015002      0.054845
    6 Atom     -0.852359      0.063543     -0.078516      0.041604
    7 Atom     -0.830182     -0.087379     -0.032871      0.022453
    8 Atom     -0.899407      0.011509      0.061397      0.072132
  462           0.160169     -0.011368      0.008349      0.026495
  463           0.182871      0.015611      0.017582      0.021391
  464           0.199440      0.022322      0.017422      0.025973
  465           0.124688      0.005158      0.009615      0.010680
  466           0.110392      0.004087      0.005750      0.009852
  467           0.106244      0.005771      0.007539      0.005868
  468           0.089206      0.003718      0.005478      0.004306
  469           0.104574      0.007219      0.005831      0.005633
  470           0.111283      0.006094      0.010073      0.003591
  471           0.096514      0.005324      0.007413      0.001859
  472           0.112348      0.000561      0.009473      0.008053
  473           0.114506     -0.000165      0.011366      0.006076
  474           0.095650     -0.000768      0.006200      0.006603
  475           0.135170     -0.006624      0.004957      0.016527
  476           0.222226     -0.043929      0.045070      0.097180
  477           0.160956      0.012278      0.013827      0.016164
  478           0.229606      0.057511      0.063370      0.038111
 -----------------------------------------------------------------
 Leave Link  602 at Fri May 22 12:39:23 2026, MaxMem=   131072000 cpu:               0.0 elap:               0.0
 (Enter /afs/math/software/gaussian/g16.A03/g16/l701.exe)
 ... and contract with generalized density number  0.
 Compute integral first derivatives.
 Leave Link  701 at Fri May 22 12:39:23 2026, MaxMem=   131072000 cpu:               0.1 elap:               0.1
 (Enter /afs/math/software/gaussian/g16.A03/g16/l702.exe)
 L702 exits ... SP integral derivatives will be done elsewhere.
 Leave Link  702 at Fri May 22 12:39:23 2026, MaxMem=   131072000 cpu:               0.0 elap:               0.0
 (Enter /afs/math/software/gaussian/g16.A03/g16/l703.exe)
 Integral derivatives from FoFJK, PRISM(SPDF).
 Compute integral first derivatives, UseDBF=F ICtDFT=           0.
 Calling FoFJK, ICntrl=      2527 FMM=F ISym2X=0 I1Cent= 0 IOpClX= 0 NMat=1 NMatS=1 NMatT=0.
 FoFJK:  IHMeth= 1 ICntrl=    2527 DoSepK=F KAlg= 0 I1Cent=           0 FoldK=F
 IRaf=         0 NMat=       1 IRICut=       1 DoRegI=T DoRafI=F ISym2E= 0 IDoP0=0 IntGTp=1.
 FoFCou: FMM=F IPFlag=           0 FMFlag=      100000 FMFlg1=         800
         NFxFlg=           0 DoJE=F BraDBF=F KetDBF=F FulRan=T
         wScrn=  0.000000 ICntrl=      2527 IOpCl=  0 I1Cent=           0 NGrid=           0
         NMat0=    1 NMatS0=      1 NMatT0=    0 NMatD0=    1 NMtDS0=    0 NMtDT0=    0
 Symmetry not used in FoFCou.
 Leave Link  703 at Fri May 22 12:39:24 2026, MaxMem=   131072000 cpu:               0.6 elap:               0.6
 (Enter /afs/math/software/gaussian/g16.A03/g16/l716.exe)
 Dipole        = 9.02530371D+01 1.61666579D+02 5.90047778D+01
 -------------------------------------------------------------------
 Center     Atomic                   Forces (Hartrees/Bohr)
 Number     Number              X              Y              Z
 -------------------------------------------------------------------
      1        7          -0.029726539    0.019500013   -0.002582989
      2        1          -0.002709859   -0.036347233   -0.036412405
      3        1          -0.017531236    0.032684290   -0.013066515
      4        1           0.058369082    0.023970095   -0.015119032
      5        6           0.002973749    0.007993868    0.018601540
      6        1           0.046252320   -0.052649067    0.020729834
      7        1          -0.064259252   -0.016231144    0.007667433
      8        1          -0.003931519    0.005325128   -0.000170160
 -------------------------------------------------------------------
 Cartesian Forces:  Max     0.064259252 RMS     0.028821565
 Force constants in Cartesian coordinates: 
                1             2             3             4             5 
      1  0.910761D+00
      2  0.270656D-01  0.868205D+00
      3  0.110581D-01  0.405730D-01  0.815680D+00
      4 -0.425960D-01 -0.378825D-01 -0.294832D-01  0.214950D+00
      5 -0.407555D-01 -0.210712D+00 -0.163114D+00  0.380795D-01  0.378354D+00
      6 -0.387228D-01 -0.195670D+00 -0.205781D+00  0.418982D-01  0.163425D+00
      7 -0.158547D+00  0.146792D+00 -0.457308D-01  0.592296D-01 -0.374054D-02
      8  0.159233D+00 -0.214841D+00  0.572481D-01 -0.763882D-02  0.719174D-01
      9 -0.686869D-01  0.793604D-01 -0.515178D-01 -0.699671D-02  0.263915D-01
     10 -0.359005D+00 -0.122077D+00  0.279117D-01  0.642772D-01  0.276273D-02
     11 -0.131191D+00 -0.815736D-01  0.855569D-02  0.124609D-01  0.644922D-01
     12  0.589970D-01  0.191765D-01 -0.401249D-01  0.218826D-01  0.193907D-01
     13 -0.856461D-01 -0.181682D-01  0.475322D-01  0.215597D-01  0.374967D-02
     14 -0.183222D-01 -0.100488D+00  0.725671D-01  0.458496D-02  0.305945D-01
     15  0.465953D-01  0.703650D-01 -0.300654D+00 -0.239830D-02 -0.291298D-02
     16  0.254914D-01 -0.209649D-02 -0.465790D-02  0.368695D-01 -0.435441D-02
     17 -0.820236D-03  0.253179D-01 -0.587058D-02  0.227866D-01  0.123543D-02
     18 -0.794428D-02 -0.163076D-02  0.400350D-01  0.291699D-01 -0.444197D-01
     19  0.260457D-01  0.325355D-02 -0.266064D-02  0.296819D-01 -0.211989D-02
     20  0.157192D-02  0.215789D-01 -0.641592D-02 -0.382796D-01  0.186723D-01
     21  0.297019D-02 -0.428520D-02  0.408997D-01 -0.515271D-01 -0.229005D-01
     22  0.207216D-01  0.311284D-02 -0.396931D-02 -0.467479D-01  0.637839D-02
     23  0.321780D-02  0.297382D-01 -0.354348D-02  0.588887D-02 -0.173291D-01
     24 -0.426659D-02 -0.788951D-02  0.386877D-01 -0.254538D-02  0.241398D-01
                6             7             8             9            10 
      6  0.278712D+00
      7  0.484825D-02  0.326455D+00
      8 -0.654391D-02 -0.138945D+00  0.348928D+00
      9  0.390895D-01  0.434012D-01 -0.208491D-01  0.164056D+00
     10 -0.364352D-02  0.748012D-01  0.509161D-02 -0.692543D-02  0.492545D+00
     11 -0.734246D-03 -0.199912D-01  0.541583D-01  0.901166D-02  0.100301D+00
     12  0.436353D-01  0.185494D-01  0.518382D-02  0.419312D-01 -0.131516D-02
     13 -0.515141D-02  0.258783D-01 -0.581755D-03 -0.851872D-02  0.265855D-01
     14 -0.961981D-02 -0.319026D-02  0.242447D-01 -0.219402D-02  0.272361D-02
     15  0.378319D-01 -0.406055D-02 -0.591497D-02  0.395170D-01 -0.205732D-02
     16  0.176686D-02 -0.248734D-01 -0.268491D-01  0.862196D-02 -0.175284D-02
     17  0.160586D-01 -0.258467D-01 -0.862467D-03 -0.325517D-01 -0.139206D-01
     18  0.595530D-01  0.895623D-02 -0.338708D-01 -0.144269D-03  0.931974D-02
     19  0.928275D-03 -0.134362D-02 -0.146586D-01  0.863377D-02  0.125688D-01
     20  0.955764D-02  0.487647D-01  0.544472D-01 -0.142150D-01  0.268673D-01
     21  0.515775D-01 -0.274947D-01 -0.127008D-01  0.438472D-01 -0.239615D-01
     22 -0.192386D-02  0.356249D-01  0.243483D-01  0.304708D-01  0.272049D-01
     23  0.235262D-01 -0.384339D-02 -0.767326D-03 -0.449539D-01 -0.174878D-02
     24  0.326062D-01  0.153096D-02  0.174476D-01  0.604454D-01  0.671508D-03
               11            12            13            14            15 
     11  0.240694D+00
     12  0.131323D-01  0.162248D+00
     13  0.119489D-02  0.404639D-02  0.831750D+00
     14  0.226414D-01 -0.396437D-02 -0.444109D-02  0.828224D+00
     15 -0.625166D-02  0.421596D-01  0.924561D-02  0.251319D-01  0.780299D+00
     16  0.496300D-01 -0.265595D-01 -0.143872D+00  0.146594D+00 -0.422231D-01
     17  0.531833D-01 -0.120648D-01  0.160486D+00 -0.228064D+00  0.520217D-01
     18 -0.159358D-01  0.436080D-01 -0.627250D-01  0.726883D-01 -0.505310D-01
     19  0.276229D-01 -0.224086D-01 -0.310597D+00 -0.107946D+00  0.131496D-01
     20 -0.319167D-01 -0.176355D-01 -0.119078D+00 -0.726197D-01  0.117125D-02
     21 -0.185156D-01 -0.770503D-02  0.419668D-01  0.115173D-01 -0.310849D-01
     22 -0.400281D-01 -0.531921D-01 -0.284337D-01 -0.200031D-01 -0.182512D-01
     23  0.155454D-01 -0.232188D-01 -0.231611D-01 -0.167309D+00 -0.133610D+00
     24  0.107376D-01  0.514724D-01 -0.263959D-01 -0.166126D+00 -0.180312D+00
               16            17            18            19            20 
     16  0.314303D+00
     17 -0.137598D+00  0.360968D+00
     18  0.389138D-01 -0.161368D-01  0.164343D+00
     19  0.751204D-01  0.620772D-02 -0.688346D-02  0.443063D+00
     20 -0.219832D-01  0.514750D-01  0.103566D-01  0.846983D-01  0.231438D+00
     21  0.192376D-01  0.657348D-02  0.419473D-01  0.125796D-01  0.197466D-01
     22  0.559377D-01 -0.112946D-01 -0.880702D-02  0.626860D-01  0.174389D-01
     23 -0.334257D-02  0.739713D-01  0.289489D-01  0.294174D-02  0.641499D-01
     24  0.490031D-02 -0.802999D-02  0.384137D-01 -0.333842D-02 -0.256573D-02
               21            22            23            24 
     21  0.156568D+00
     22  0.262291D-01  0.210231D+00
     23  0.205648D-01  0.200474D-01  0.339225D+00
     24  0.411748D-01  0.294435D-01  0.132287D+00  0.254736D+00
 Leave Link  716 at Fri May 22 12:39:24 2026, MaxMem=   131072000 cpu:               0.0 elap:               0.0
 (Enter /afs/math/software/gaussian/g16.A03/g16/l103.exe)

 GradGradGradGradGradGradGradGradGradGradGradGradGradGradGradGradGradGrad
 Berny optimization.
 Search for a local minimum.
 Step number   1 out of a maximum of    2
 All quantities printed in internal units (Hartrees-Bohrs-Radians)
 Second derivative matrix not updated -- first step.
 ITU=  0
     Eigenvalues ---    0.01710   0.04823   0.04908   0.06331   0.09456
     Eigenvalues ---    0.09555   0.15819   0.15939   0.17575   0.17803
     Eigenvalues ---    0.22983   0.35454   0.61809   0.94798   0.96839
     Eigenvalues ---    1.10768   1.16470   1.21667
 Quadratic step=6.199D-01 exceeds max=3.000D-01 adjusted using Lamda=-1.447D-01.
 Angle between NR and scaled steps=  23.02 degrees.
 Angle between quadratic step and forces=  25.14 degrees.
 Linear search not attempted -- first point.
 Variable       Old X    -DE/DX   Delta X   Delta X   Delta X     New X
                                 (Linear)    (Quad)   (Total)
    X1       90.45103  -0.02973   0.00000  -0.00633  -0.00633  90.44470
    Y1      161.79221   0.01950   0.00000   0.03298   0.03298 161.82520
    Z1       58.80963  -0.00258   0.00000  -0.03121  -0.03121  58.77842
    X2       90.14030  -0.00271   0.00000   0.00678   0.00678  90.14709
    Y2      160.36561  -0.03635   0.00000  -0.05069  -0.05069 160.31493
    Z2       57.56468  -0.03641   0.00000  -0.06972  -0.06972  57.49496
    X3       89.19400  -0.01753   0.00000  -0.02101  -0.02101  89.17299
    Y3      163.22560   0.03268   0.00000   0.08981   0.08981 163.31541
    Z3       58.39188  -0.01307   0.00000  -0.05464  -0.05464  58.33724
    X4       92.22831   0.05837   0.00000   0.09558   0.09558  92.32389
    Y4      162.44832   0.02397   0.00000   0.05147   0.05147 162.49979
    Z4       58.68931  -0.01512   0.00000  -0.06213  -0.06213  58.62718
    X5       89.90913   0.00297   0.00000  -0.00572  -0.00572  89.90341
    Y5      160.94578   0.00799   0.00000  -0.03711  -0.03711 160.90866
    Z5       61.36899   0.01860   0.00000   0.04504   0.04504  61.41403
    X6       91.11517   0.04625   0.00000   0.09398   0.09398  91.20915
    Y6      159.45696  -0.05265   0.00000  -0.09683  -0.09683 159.36013
    Z6       61.75011   0.02073   0.00000   0.09758   0.09758  61.84769
    X7       88.07209  -0.06426   0.00000  -0.13083  -0.13083  87.94125
    Y7      160.25415  -0.01623   0.00000  -0.01514  -0.01514 160.23901
    Z7       61.41790   0.00767   0.00000   0.06351   0.06351  61.48141
    X8       90.15255  -0.00393   0.00000  -0.01374  -0.01374  90.13882
    Y8      162.42582   0.00533   0.00000   0.02502   0.02502 162.45084
    Z8       62.70438  -0.00017   0.00000  -0.00234  -0.00234  62.70204
         Item               Value     Threshold  Converged?
 Maximum Force            0.064259     0.000450     NO 
 RMS     Force            0.028822     0.000300     NO 
 Maximum Displacement     0.130832     0.001800     NO 
 RMS     Displacement     0.061267     0.001200     NO 
 Predicted change in Energy=-2.569908D-02
 GradGradGradGradGradGradGradGradGradGradGradGradGradGradGradGradGradGrad

 Leave Link  103 at Fri May 22 12:39:24 2026, MaxMem=   131072000 cpu:               0.0 elap:               0.0
 (Enter /afs/math/software/gaussian/g16.A03/g16/l9999.exe)

 Test job not archived.
 1\1\GINC-CLUSTER-X\Force\RBP86\STO-3G\C1H6N1(1+)\JANSEN\22-May-2026\0\
 \#P BP86/STO-3G guess=read nosymm gfinput gfprint force charge guess=h
 uckel punch=derivatives iop(3/33=1,6/7=3) prop(field,read) pop=esp\\QM
  part of step 1\\1,1\N,47.864625,85.616753,31.120718\H,47.700195,84.86
 1827,30.461917\H,47.19943,86.375267,30.899654\H,48.805121,85.963948,31
 .057046\C,47.577863,85.168837,32.475069\H,48.21607,84.380991,32.676753
 \H,46.605741,84.802844,32.500954\H,47.706677,85.95204,33.181729\\Versi
 on=ES64L-G16RevA.03\HF=-95.7746145\RMSD=2.682e-09\RMSF=2.882e-02\Dipol
 e=0.0680671,0.2772836,-1.0162551\Quadrupole=-4442.1846034,13548.294214
 9,-9106.1096115,14591.0306703,5325.1331132,9538.6744455\PG=C01 [X(C1H6
 N1)]\\@


0EVERYBODY IS IGNORANT, ONLY ON DIFFERENT SUBJECTS.
0          WILL ROGERS
 Job cpu time:       0 days  0 hours  0 minutes  4.1 seconds.
 Elapsed time:       0 days  0 hours  0 minutes  4.1 seconds.
 File lengths (MBytes):  RWF=     72 Int=      0 D2E=      0 Chk=      8 Scr=      8
 Normal termination of Gaussian 16 at Fri May 22 12:39:24 2026.
