 Entering Gaussian System, Link 0=g16
 Input=/net/work/jansen/gmx2qmmm_portable/examples/opt/test.gjf
 Output=/net/work/jansen/gmx2qmmm_portable/examples/opt/test.log
 Initial command:
 /afs/math/software/gaussian/g16.A03/g16/l1.exe "/net/work/jansen/gmx2qmmm_portable/examples/opt/Gau-22639.inp" -scrdir="/net/work/jansen/gmx2qmmm_portable/examples/opt/"
 Entering Link 1 = /afs/math/software/gaussian/g16.A03/g16/l1.exe PID=     22640.
  
 Copyright (c) 1988,1990,1992,1993,1995,1998,2003,2009,2016,
            Gaussian, Inc.  All Rights Reserved.
  
 This is part of the Gaussian(R) 16 program.  It is based on
 the Gaussian(R) 09 system (copyright 2009, Gaussian, Inc.),
 the Gaussian(R) 03 system (copyright 2003, Gaussian, Inc.),
 the Gaussian(R) 98 system (copyright 1998, Gaussian, Inc.),
 the Gaussian(R) 94 system (copyright 1995, Gaussian, Inc.),
 the Gaussian 92(TM) system (copyright 1992, Gaussian, Inc.),
 the Gaussian 90(TM) system (copyright 1990, Gaussian, Inc.),
 the Gaussian 88(TM) system (copyright 1988, Gaussian, Inc.),
 the Gaussian 86(TM) system (copyright 1986, Carnegie Mellon
 University), and the Gaussian 82(TM) system (copyright 1983,
 Carnegie Mellon University). Gaussian is a federally registered
 trademark of Gaussian, Inc.
  
 This software contains proprietary and confidential information,
 including trade secrets, belonging to Gaussian, Inc.
  
 This software is provided under written license and may be
 used, copied, transmitted, or stored only in accord with that
 written license.
  
 The following legend is applicable only to US Government
 contracts under FAR:
  
                    RESTRICTED RIGHTS LEGEND
  
 Use, reproduction and disclosure by the US Government is
 subject to restrictions as set forth in subparagraphs (a)
 and (c) of the Commercial Computer Software - Restricted
 Rights clause in FAR 52.227-19.
  
 Gaussian, Inc.
 340 Quinnipiac St., Bldg. 40, Wallingford CT 06492
  
  
 ---------------------------------------------------------------
 Warning -- This program may not be used in any manner that
 competes with the business of Gaussian, Inc. or will provide
 assistance to any competitor of Gaussian, Inc.  The licensee
 of this program is prohibited from giving any competitor of
 Gaussian, Inc. access to this program.  By using this program,
 the user acknowledges that Gaussian, Inc. is engaged in the
 business of creating and licensing software in the field of
 computational chemistry and represents and warrants to the
 licensee that it is not a competitor of Gaussian, Inc. and that
 it will not use this program in any manner prohibited above.
 ---------------------------------------------------------------
  

 Cite this work as:
 Gaussian 16, Revision A.03,
 M. J. Frisch, G. W. Trucks, H. B. Schlegel, G. E. Scuseria, 
 M. A. Robb, J. R. Cheeseman, G. Scalmani, V. Barone, 
 G. A. Petersson, H. Nakatsuji, X. Li, M. Caricato, A. V. Marenich, 
 J. Bloino, B. G. Janesko, R. Gomperts, B. Mennucci, H. P. Hratchian, 
 J. V. Ortiz, A. F. Izmaylov, J. L. Sonnenberg, D. Williams-Young, 
 F. Ding, F. Lipparini, F. Egidi, J. Goings, B. Peng, A. Petrone, 
 T. Henderson, D. Ranasinghe, V. G. Zakrzewski, J. Gao, N. Rega, 
 G. Zheng, W. Liang, M. Hada, M. Ehara, K. Toyota, R. Fukuda, 
 J. Hasegawa, M. Ishida, T. Nakajima, Y. Honda, O. Kitao, H. Nakai, 
 T. Vreven, K. Throssell, J. A. Montgomery, Jr., J. E. Peralta, 
 F. Ogliaro, M. J. Bearpark, J. J. Heyd, E. N. Brothers, K. N. Kudin, 
 V. N. Staroverov, T. A. Keith, R. Kobayashi, J. Normand, 
 K. Raghavachari, A. P. Rendell, J. C. Burant, S. S. Iyengar, 
 J. Tomasi, M. Cossi, J. M. Millam, M. Klene, C. Adamo, R. Cammi, 
 J. W. Ochterski, R. L. Martin, K. Morokuma, O. Farkas, 
 J. B. Foresman, and D. J. Fox, Gaussian, Inc., Wallingford CT, 2016.
 
 ******************************************
 Gaussian 16:  ES64L-G16RevA.03 25-Dec-2016
                22-May-2026 
 ******************************************
 %NPROCSHARED=1
 Will use up to    1 processors via shared memory.
 %MEM=1000MB
 %CHK=test.chk
 ----------------------------------------------------------------------
 #P BP86/STO-3G nosymm gfinput gfprint force charge guess=huckel punch=
 derivatives iop(3/33=1,6/7=3) prop(field,read) pop=esp
 ----------------------------------------------------------------------
 1/10=7,18=10,28=-2,30=1,38=1,125=101/1,3;
 2/12=2,15=1,17=6,18=5,29=2,40=1/2;
 3/6=3,11=2,24=110,25=1,30=1,33=1,71=1,74=404/1,2,3;
 4/11=4/1;
 5/5=2,38=5/2;
 6/7=3,8=2,9=2,10=2,14=2,15=9,28=1/1,2;
 7/7=1,16=-2,29=1,30=1/1,2,3,16;
 1/10=7,18=10,28=-2,30=1/3;
 99/10=4,12=1/99;
 Leave Link    1 at Fri May 22 12:39:12 2026, MaxMem=   131072000 cpu:               0.1 elap:               0.1
 (Enter /afs/math/software/gaussian/g16.A03/g16/l101.exe)
 -----------------
 QM part of step 0
 -----------------
 Symbolic Z-matrix:
 Charge =  1 Multiplicity = 1
 N                     47.9      85.62     31.12 
 H                     47.7      84.87     30.47 
 H                     47.2      86.37     30.9 
 H                     48.77     85.95     31.06 
 C                     47.57     85.15     32.47 
 H                     48.2      84.4      32.67 
 H                     46.63     84.81     32.5 
 H                     47.70545   85.94846   33.18291 
 
 ITRead=  0  0  0  0  0  0  0  0
 MicOpt= -1 -1 -1 -1 -1 -1 -1 -1
 NAtoms=      8 NQM=        8 NQMF=       0 NMMI=      0 NMMIF=      0
                NMic=       0 NMicF=      0.
                    Isotopes and Nuclear Properties:
 (Nuclear quadrupole moments (NQMom) in fm**2, nuclear magnetic moments (NMagM)
  in nuclear magnetons)

  Atom         1           2           3           4           5           6           7           8
 IAtWgt=          14           1           1           1          12           1           1           1
 AtmWgt=  14.0030740   1.0078250   1.0078250   1.0078250  12.0000000   1.0078250   1.0078250   1.0078250
 NucSpn=           2           1           1           1           0           1           1           1
 AtZEff=  -0.0000000  -0.0000000  -0.0000000  -0.0000000  -0.0000000  -0.0000000  -0.0000000  -0.0000000
 NQMom=    2.0440000   0.0000000   0.0000000   0.0000000   0.0000000   0.0000000   0.0000000   0.0000000
 NMagM=    0.4037610   2.7928460   2.7928460   2.7928460   0.0000000   2.7928460   2.7928460   2.7928460
 AtZNuc=   7.0000000   1.0000000   1.0000000   1.0000000   6.0000000   1.0000000   1.0000000   1.0000000
 Background charge distribution read from input stream:
 Point Charges:
 XYZ=   46.9500   86.4400   34.3700 Q=   -0.2861 A=    0.0000 R=    0.0000 C=    0.0000
 XYZ=   48.8600   87.0100   33.3400 Q=   -0.0960 A=    0.0000 R=    0.0000 C=    0.0000
 XYZ=   49.5200   86.7800   32.6200 Q=    0.2681 A=    0.0000 R=    0.0000 C=    0.0000
 XYZ=   49.1400   88.1500   34.2100 Q=   -0.2722 A=    0.0000 R=    0.0000 C=    0.0000
 XYZ=   49.2900   87.7700   35.1300 Q=    0.1304 A=    0.0000 R=    0.0000 C=    0.0000
 XYZ=   50.3800   88.9000   33.7600 Q=    0.1123 A=    0.0000 R=    0.0000 C=    0.0000
 XYZ=   50.5700   89.6400   34.3900 Q=    0.0813 A=    0.0000 R=    0.0000 C=    0.0000
 XYZ=   51.1600   88.2700   33.7400 Q=    0.0813 A=    0.0000 R=    0.0000 C=    0.0000
 XYZ=   50.1800   89.4200   32.5000 Q=   -0.6514 A=    0.0000 R=    0.0000 C=    0.0000
 XYZ=   50.9500   89.8900   32.2200 Q=    0.4474 A=    0.0000 R=    0.0000 C=    0.0000
 XYZ=   47.9500   89.0900   34.2200 Q=    0.8113 A=    0.0000 R=    0.0000 C=    0.0000
 XYZ=   47.7000   89.5800   33.3800 Q=   -0.8132 A=    0.0000 R=    0.0000 C=    0.0000
 XYZ=   47.2900   89.2600   35.2500 Q=   -0.8132 A=    0.0000 R=    0.0000 C=    0.0000
 XYZ=   46.5393   86.5262   34.8263 Q=   -0.2768 A=    0.0000 R=    0.0000 C=    0.0000
 XYZ=   47.3607   86.3538   33.9137 Q=    0.2768 A=    0.0000 R=    0.0000 C=    0.0000
 XYZ=   49.4070   87.3780   33.2754 Q=   -0.2849 A=    0.0000 R=    0.0000 C=    0.0000
 XYZ=   48.3130   86.6420   33.4046 Q=    0.2849 A=    0.0000 R=    0.0000 C=    0.0000
 Pt Chg Charge=             -1.0000 electrons
 Pt Chg Dipole moment (Debye):
    X=           -221.8478    Y=           -429.2248    Z=           -166.7072  Tot=            511.1180
 Pt Chg Quadrupole moment (Debye-Ang):
   XX=         -10224.1550   YY=         -38355.1482   ZZ=          -5789.4441
   XY=         -19831.5967   XZ=          -7703.0235   YZ=         -14889.7887
 Pt Chg Traceless Quadrupole moment (Debye-Ang):
   XX=           7898.7608   YY=         -20232.2324   ZZ=          12333.4717
   XY=         -19831.5967   XZ=          -7703.0235   YZ=         -14889.7887
 Pt Chg Octapole moment (Debye-Ang**2):
  XXX=        -470006.6789  YYY=       -3427270.7862  ZZZ=        -201178.8845  XYY=       -1772709.0047
  XXY=        -914291.6814  XXZ=        -355188.7824  XZZ=        -267615.6403  YZZ=        -516845.5645
  YYZ=       -1329892.4688  XYZ=        -688236.8505
 Pt Chg Hexadecapole moment (Debye-Ang**3):
 XXXX=      -21543359.9673 YYYY=     -306238402.5937 ZZZZ=       -6995094.3839 XXXY=      -42045856.9890
 XXXZ=      -16338527.1937 YYYX=     -158451125.4430 YYYZ=     -118778766.0654 ZZZX=       -9302760.2956
 ZZZY=      -17951702.9548 XXYY=      -81754294.6404 XXZZ=      -12345739.2164 YYZZ=      -46140970.5216
 XXYZ=      -31745618.7943 YYXZ=      -61489526.0662 ZZXY=      -23898583.9974
 Leave Link  101 at Fri May 22 12:39:12 2026, MaxMem=   131072000 cpu:               0.1 elap:               0.1
 (Enter /afs/math/software/gaussian/g16.A03/g16/l103.exe)

 GradGradGradGradGradGradGradGradGradGradGradGradGradGradGradGradGradGrad
 Berny optimization.
 Initialization pass.
 Trust Radius=3.00D-01 FncErr=1.00D-07 GrdErr=1.00D-07 EigMax=2.50D+02 EigMin=1.00D-04
 Number of steps in this run=      2 maximum allowed number of steps=      2.
 GradGradGradGradGradGradGradGradGradGradGradGradGradGradGradGradGradGrad

 Leave Link  103 at Fri May 22 12:39:12 2026, MaxMem=   131072000 cpu:               0.0 elap:               0.1
 (Enter /afs/math/software/gaussian/g16.A03/g16/l202.exe)
 ---------------------------------------------------------------------------------------------------
                            Z-MATRIX (ANGSTROMS AND DEGREES)
   CD    Cent   Atom    N1       Length/X        N2       Alpha/Y        N3        Beta/Z          J
 ---------------------------------------------------------------------------------------------------
      1      1  N        0  47.900000         85.620000         31.120000
      2      2  H        0  47.700000         84.870000         30.470000
      3      3  H        0  47.200000         86.370000         30.900000
      4      4  H        0  48.770000         85.950000         31.060000
      5      5  C        0  47.570000         85.150000         32.470000
      6      6  H        0  48.200000         84.400000         32.670000
      7      7  H        0  46.630000         84.810000         32.500000
      8      8  H        0  47.705453         85.948457         33.182908
 ---------------------------------------------------------------------------------------------------
                         Z-Matrix orientation:                         
 ---------------------------------------------------------------------
 Center     Atomic      Atomic             Coordinates (Angstroms)
 Number     Number       Type             X           Y           Z
 ---------------------------------------------------------------------
      1          7           0       47.900000   85.620000   31.120000
      2          1           0       47.700000   84.870000   30.470000
      3          1           0       47.200000   86.370000   30.900000
      4          1           0       48.770000   85.950000   31.060000
      5          6           0       47.570000   85.150000   32.470000
      6          1           0       48.200000   84.400000   32.670000
      7          1           0       46.630000   84.810000   32.500000
      8          1           0       47.705453   85.948457   33.182908
 ---------------------------------------------------------------------
                    Distance matrix (angstroms):
                    1          2          3          4          5
     1  N    0.000000
     2  H    1.012423   0.000000
     3  H    1.049238   1.638566   0.000000
     4  H    0.932416   1.630767   1.633065   0.000000
     5  C    1.467072   2.023685   2.022424   2.016953   0.000000
     6  H    1.995219   2.304539   2.830866   2.306404   0.999700
     7  H    2.042890   2.295517   2.306187   2.820071   1.000050
     8  H    2.097933   2.919412   2.375889   2.374869   1.078943
                    6          7          8
     6  H    0.000000
     7  H    1.631533   0.000000
     8  H    1.704515   1.708522   0.000000
 Symmetry turned off by external request.
 Stoichiometry    CH6N(1+)
 Framework group  C1[X(CH6N)]
 Deg. of freedom    18
 Full point group                 C1      NOp   1
 Rotational constants (GHZ):          91.0011643          21.5758079          21.4323111
 Leave Link  202 at Fri May 22 12:39:12 2026, MaxMem=   131072000 cpu:               0.0 elap:               0.0
 (Enter /afs/math/software/gaussian/g16.A03/g16/l301.exe)
 Standard basis: STO-3G (5D, 7F)
                         Coordinates in L301:                         
 ---------------------------------------------------------------------
 Center     Atomic      Atomic             Coordinates (Angstroms)
 Number     Number       Type             X           Y           Z
 ---------------------------------------------------------------------
      1          7           0       47.900000   85.620000   31.120000
      2          1           0       47.700000   84.870000   30.470000
      3          1           0       47.200000   86.370000   30.900000
      4          1           0       48.770000   85.950000   31.060000
      5          6           0       47.570000   85.150000   32.470000
      6          1           0       48.200000   84.400000   32.670000
      7          1           0       46.630000   84.810000   32.500000
      8          1           0       47.705453   85.948457   33.182908
 ---------------------------------------------------------------------
 FixB: optimizing general contractions.
 Ernie: Thresh=  0.10000D-02 Tol=  0.10000D-05 Strict=F.
 IA=     1 ShT= 0 ShC= 0 NL=   1 NS=   0.
 IA=     1 L=0 SC=0 ISt=    0 NBk=    0 NP=    0 IndPr=    0.
 IA=     1 ShT= 1 ShC= 0 NL=   1 NS=   0.
 IA=     1 L=1 SC=0 ISt=    0 NBk=    0 NP=    0 IndPr=    0.
 IA=     2 ShT= 0 ShC= 0 NL=   1 NS=   0.
 IA=     2 L=0 SC=0 ISt=    0 NBk=    0 NP=    0 IndPr=    0.
 IA=     3 ShT= 0 ShC= 0 NL=   1 NS=   0.
 IA=     3 L=0 SC=0 ISt=    0 NBk=    0 NP=    0 IndPr=    0.
 IA=     4 ShT= 0 ShC= 0 NL=   1 NS=   0.
 IA=     4 L=0 SC=0 ISt=    0 NBk=    0 NP=    0 IndPr=    0.
 IA=     5 ShT= 0 ShC= 0 NL=   1 NS=   0.
 IA=     5 L=0 SC=0 ISt=    0 NBk=    0 NP=    0 IndPr=    0.
 IA=     5 ShT= 1 ShC= 0 NL=   1 NS=   0.
 IA=     5 L=1 SC=0 ISt=    0 NBk=    0 NP=    0 IndPr=    0.
 IA=     6 ShT= 0 ShC= 0 NL=   1 NS=   0.
 IA=     6 L=0 SC=0 ISt=    0 NBk=    0 NP=    0 IndPr=    0.
 IA=     7 ShT= 0 ShC= 0 NL=   1 NS=   0.
 IA=     7 L=0 SC=0 ISt=    0 NBk=    0 NP=    0 IndPr=    0.
 IA=     8 ShT= 0 ShC= 0 NL=   1 NS=   0.
 IA=     8 L=0 SC=0 ISt=    0 NBk=    0 NP=    0 IndPr=    0.
 AO basis set in the form of general basis input (Overlap normalization):
      1 0
 S   3 1.00       0.000000000000
      0.9910616896D+02  0.1543289673D+00
      0.1805231239D+02  0.5353281423D+00
      0.4885660238D+01  0.4446345422D+00
 SP   3 1.00       0.000000000000
      0.3780455879D+01 -0.9996722919D-01  0.1559162750D+00
      0.8784966449D+00  0.3995128261D+00  0.6076837186D+00
      0.2857143744D+00  0.7001154689D+00  0.3919573931D+00
 ****
      2 0
 S   3 1.00       0.000000000000
      0.3425250914D+01  0.1543289673D+00
      0.6239137298D+00  0.5353281423D+00
      0.1688554040D+00  0.4446345422D+00
 ****
      3 0
 S   3 1.00       0.000000000000
      0.3425250914D+01  0.1543289673D+00
      0.6239137298D+00  0.5353281423D+00
      0.1688554040D+00  0.4446345422D+00
 ****
      4 0
 S   3 1.00       0.000000000000
      0.3425250914D+01  0.1543289673D+00
      0.6239137298D+00  0.5353281423D+00
      0.1688554040D+00  0.4446345422D+00
 ****
      5 0
 S   3 1.00       0.000000000000
      0.7161683735D+02  0.1543289673D+00
      0.1304509632D+02  0.5353281423D+00
      0.3530512160D+01  0.4446345422D+00
 SP   3 1.00       0.000000000000
      0.2941249355D+01 -0.9996722919D-01  0.1559162750D+00
      0.6834830964D+00  0.3995128261D+00  0.6076837186D+00
      0.2222899159D+00  0.7001154689D+00  0.3919573931D+00
 ****
      6 0
 S   3 1.00       0.000000000000
      0.3425250914D+01  0.1543289673D+00
      0.6239137298D+00  0.5353281423D+00
      0.1688554040D+00  0.4446345422D+00
 ****
      7 0
 S   3 1.00       0.000000000000
      0.3425250914D+01  0.1543289673D+00
      0.6239137298D+00  0.5353281423D+00
      0.1688554040D+00  0.4446345422D+00
 ****
      8 0
 S   3 1.00       0.000000000000
      0.3425250914D+01  0.1543289673D+00
      0.6239137298D+00  0.5353281423D+00
      0.1688554040D+00  0.4446345422D+00
 ****

 AO basis set (Overlap normalization):
 Atom N1       Shell     1 S   3     bf    1 -     1         90.517881366666        161.798350785261         58.808276996465
      0.9910616896D+02  0.1543289673D+00
      0.1805231239D+02  0.5353281423D+00
      0.4885660238D+01  0.4446345422D+00
 Atom N1       Shell     2 SP   3    bf    2 -     5         90.517881366666        161.798350785261         58.808276996465
      0.3780455879D+01 -0.9996722919D-01  0.1559162750D+00
      0.8784966449D+00  0.3995128261D+00  0.6076837186D+00
      0.2857143744D+00  0.7001154689D+00  0.3919573931D+00
 Atom H2       Shell     3 S   3     bf    6 -     6         90.139936141753        160.381056191837         57.579955015497
      0.3425250914D+01  0.1543289673D+00
      0.6239137298D+00  0.5353281423D+00
      0.1688554040D+00  0.4446345422D+00
 Atom H3       Shell     4 S   3     bf    7 -     7         89.195073079471        163.215645378684         58.392537249060
      0.3425250914D+01  0.1543289673D+00
      0.6239137298D+00  0.5353281423D+00
      0.1688554040D+00  0.4446345422D+00
 Atom H4       Shell     5 S   3     bf    8 -     8         92.161943095038        162.421960406367         58.694893428991
      0.3425250914D+01  0.1543289673D+00
      0.6239137298D+00  0.5353281423D+00
      0.1688554040D+00  0.4446345422D+00
 Atom C5       Shell     6 S   3     bf    9 -     9         89.894271745560        160.910179506715         61.359407264628
      0.7161683735D+02  0.1543289673D+00
      0.1304509632D+02  0.5353281423D+00
      0.3530512160D+01  0.4446345422D+00
 Atom C5       Shell     7 SP   3    bf   10 -    13         89.894271745560        160.910179506715         61.359407264628
      0.2941249355D+01 -0.9996722919D-01  0.1559162750D+00
      0.6834830964D+00  0.3995128261D+00  0.6076837186D+00
      0.2222899159D+00  0.7001154689D+00  0.3919573931D+00
 Atom H6       Shell     8 S   3     bf   14 -    14         91.084799204036        159.492884913291         61.737352489541
      0.3425250914D+01  0.1543289673D+00
      0.6239137298D+00  0.5353281423D+00
      0.1688554040D+00  0.4446345422D+00
 Atom H7       Shell     9 S   3     bf   15 -    15         88.117929188469        160.267672624363         61.416099048365
      0.3425250914D+01  0.1543289673D+00
      0.6239137298D+00  0.5353281423D+00
      0.1688554040D+00  0.4446345422D+00
 Atom H8       Shell    10 S   3     bf   16 -    16         90.150240818311        162.419044558957         62.706608136639
      0.3425250914D+01  0.1543289673D+00
      0.6239137298D+00  0.5353281423D+00
      0.1688554040D+00  0.4446345422D+00
 LdAtmC:  AtmChg=     7.000000     1.000000     1.000000     1.000000     6.000000
 LdAtmC:  AtmChg=     1.000000     1.000000     1.000000
 AtZEff=     -4.5500000     -1.0000000     -1.0000000     -1.0000000     -3.6000000
 AtZEff=     -1.0000000     -1.0000000     -1.0000000
    16 basis functions,    48 primitive gaussians,    16 cartesian basis functions
     9 alpha electrons        9 beta electrons
       nuclear repulsion energy        49.5901081275 Hartrees.
 IS=     1 IAt=     1 ISR=     1 T=0 IP=      1 IndIP=      1 IndIPD=      0 C=  3.454881D+00  0.000000D+00                             NZ=T
 IS=     1 IAt=     1 ISR=     1 T=0 IP=      2 IndIP=      2 IndIPD=      1 C=  3.341410D+00  0.000000D+00                             NZ=T
 IS=     1 IAt=     1 ISR=     1 T=0 IP=      3 IndIP=      3 IndIPD=      2 C=  1.041372D+00  0.000000D+00                             NZ=T
 IS=     2 IAt=     1 ISR=     2 T=1 IP=      1 IndIP=      4 IndIPD=      0 C= -1.931639D-01  1.171553D+00                             NZ=T
 IS=     2 IAt=     1 ISR=     2 T=1 IP=      2 IndIP=      5 IndIPD=      1 C=  2.583723D-01  7.367037D-01                             NZ=T
 IS=     2 IAt=     1 ISR=     2 T=1 IP=      3 IndIP=      6 IndIPD=      2 C=  1.949974D-01  1.167062D-01                             NZ=T
 IS=     3 IAt=     2 ISR=     1 T=0 IP=      1 IndIP=      7 IndIPD=      0 C=  2.769344D-01  0.000000D+00                             NZ=T
 IS=     3 IAt=     2 ISR=     1 T=0 IP=      2 IndIP=      8 IndIPD=      1 C=  2.678389D-01  0.000000D+00                             NZ=T
 IS=     3 IAt=     2 ISR=     1 T=0 IP=      3 IndIP=      9 IndIPD=      2 C=  8.347367D-02  0.000000D+00                             NZ=T
 IS=     4 IAt=     3 ISR=     1 T=0 IP=      1 IndIP=     10 IndIPD=      0 C=  2.769344D-01  0.000000D+00                             NZ=T
 IS=     4 IAt=     3 ISR=     1 T=0 IP=      2 IndIP=     11 IndIPD=      1 C=  2.678389D-01  0.000000D+00                             NZ=T
 IS=     4 IAt=     3 ISR=     1 T=0 IP=      3 IndIP=     12 IndIPD=      2 C=  8.347367D-02  0.000000D+00                             NZ=T
 IS=     5 IAt=     4 ISR=     1 T=0 IP=      1 IndIP=     13 IndIPD=      0 C=  2.769344D-01  0.000000D+00                             NZ=T
 IS=     5 IAt=     4 ISR=     1 T=0 IP=      2 IndIP=     14 IndIPD=      1 C=  2.678389D-01  0.000000D+00                             NZ=T
 IS=     5 IAt=     4 ISR=     1 T=0 IP=      3 IndIP=     15 IndIPD=      2 C=  8.347367D-02  0.000000D+00                             NZ=T
 IS=     6 IAt=     5 ISR=     1 T=0 IP=      1 IndIP=     16 IndIPD=      0 C=  2.707814D+00  0.000000D+00                             NZ=T
 IS=     6 IAt=     5 ISR=     1 T=0 IP=      2 IndIP=     17 IndIPD=      1 C=  2.618880D+00  0.000000D+00                             NZ=T
 IS=     6 IAt=     5 ISR=     1 T=0 IP=      3 IndIP=     18 IndIPD=      2 C=  8.161906D-01  0.000000D+00                             NZ=T
 IS=     7 IAt=     5 ISR=     2 T=1 IP=      1 IndIP=     19 IndIPD=      0 C= -1.600172D-01  8.560445D-01                             NZ=T
 IS=     7 IAt=     5 ISR=     2 T=1 IP=      2 IndIP=     20 IndIPD=      1 C=  2.140359D-01  5.383038D-01                             NZ=T
 IS=     7 IAt=     5 ISR=     2 T=1 IP=      3 IndIP=     21 IndIPD=      2 C=  1.615361D-01  8.527636D-02                             NZ=T
 IS=     8 IAt=     6 ISR=     1 T=0 IP=      1 IndIP=     22 IndIPD=      0 C=  2.769344D-01  0.000000D+00                             NZ=T
 IS=     8 IAt=     6 ISR=     1 T=0 IP=      2 IndIP=     23 IndIPD=      1 C=  2.678389D-01  0.000000D+00                             NZ=T
 IS=     8 IAt=     6 ISR=     1 T=0 IP=      3 IndIP=     24 IndIPD=      2 C=  8.347367D-02  0.000000D+00                             NZ=T
 IS=     9 IAt=     7 ISR=     1 T=0 IP=      1 IndIP=     25 IndIPD=      0 C=  2.769344D-01  0.000000D+00                             NZ=T
 IS=     9 IAt=     7 ISR=     1 T=0 IP=      2 IndIP=     26 IndIPD=      1 C=  2.678389D-01  0.000000D+00                             NZ=T
 IS=     9 IAt=     7 ISR=     1 T=0 IP=      3 IndIP=     27 IndIPD=      2 C=  8.347367D-02  0.000000D+00                             NZ=T
 IS=    10 IAt=     8 ISR=     1 T=0 IP=      1 IndIP=     28 IndIPD=      0 C=  2.769344D-01  0.000000D+00                             NZ=T
 IS=    10 IAt=     8 ISR=     1 T=0 IP=      2 IndIP=     29 IndIPD=      1 C=  2.678389D-01  0.000000D+00                             NZ=T
 IS=    10 IAt=     8 ISR=     1 T=0 IP=      3 IndIP=     30 IndIPD=      2 C=  8.347367D-02  0.000000D+00                             NZ=T
 IExCor=  404 DFT=T Ex=B Corr=P86 ExCW=0 ScaHFX=  0.000000
 ScaDFX=  1.000000  1.000000  1.000000  1.000000 ScalE2=  1.000000  1.000000
 IRadAn=      5 IRanWt=     -1 IRanGd=            0 ICorTp=0 IEmpDi=  4
 NAtoms=    8 NActive=    8 NUniq=    8 SFac= 1.00D+00 NAtFMM=   60 NAOKFM=F Big=F
 Integral buffers will be    131072 words long.
 Raffenetti 2 integral format.
 Two-electron integral symmetry is turned off.
 Background charge distribution read from rwf.
 PtFMM for NChg=        25 BoxLen=    40.00 Levels= 0 LMax=20 SMax=    10.4 ICnFMM=     1:
 Self energy of the charges =        -0.6947009102 a.u.
 MM   energy of the charges =         0.0000000000 a.u.
 Nuclei-charges interaction =        -1.4551737864 a.u.
 Nuclear repulsion after external point charges =       47.4402334310 Hartrees.
 Leave Link  301 at Fri May 22 12:39:12 2026, MaxMem=   131072000 cpu:               0.0 elap:               0.1
 (Enter /afs/math/software/gaussian/g16.A03/g16/l302.exe)
 NPDir=0 NMtPBC=     1 NCelOv=     1 NCel=       1 NClECP=     1 NCelD=      1
         NCelK=      1 NCelE2=     1 NClLst=     1 CellRange=     0.0.
 One-electron integrals computed using PRISM.
 Entering OneElI...
 Calculate overlap and kinetic energy integrals
    NBasis =  16  MinDer = 0  MaxDer = 0
 Requested accuracy = 0.1000D-12
 PrmmSu-InSpLW:  IPartL=    0 NPrtUS=    1 NPrtUL=    1 DoSpLW=F IThBeg=    0 IThEnd=    0 NThAct=    1.
 PrsmSu:  NPrtUS=   1 ThrOK=F IAlg=1 NPAlg=1 LenDen=           0 ISkipM=0 DoSpLW=F IThBeg=    0 IThEnd=    0.
 Prism:   IPart=     0 DynPar=F LinDyn=F Incr=           1.
 PRISM was handed   131062193 working-precision words and    55 shell-pairs
 IPart=  0 NShTot=          55 NBatch=           5 AvBLen=        11.0
 PrSmSu:  NxtVal=              2.
 *** Overlap *** 
                1             2             3             4             5 
      1  0.100000D+01
      2  0.235038D+00  0.100000D+01
      3  0.000000D+00  0.000000D+00  0.100000D+01
      4  0.000000D+00  0.000000D+00  0.000000D+00  0.100000D+01
      5  0.000000D+00  0.000000D+00  0.000000D+00  0.000000D+00  0.100000D+01
      6  0.583565D-01  0.494635D+00 -0.868339D-01 -0.325627D+00 -0.282210D+00
      7  0.534908D-01  0.471961D+00 -0.284610D+00  0.304939D+00 -0.894488D-01
      8  0.704423D-01  0.545485D+00  0.434080D+00  0.164651D+00 -0.299366D-01
      9  0.000000D+00  0.236483D-01 -0.911208D-02 -0.129778D-01  0.372767D-01
     10  0.247919D-01  0.287937D+00 -0.682263D-01 -0.971707D-01  0.279107D+00
     11  0.928642D-02  0.786220D-01  0.132959D+00 -0.334510D-01  0.960825D-01
     12  0.132261D-01  0.111977D+00 -0.334510D-01  0.108804D+00  0.136845D+00
     13 -0.379899D-01 -0.321635D+00  0.960825D-01  0.136845D+00 -0.236619D+00
     14  0.624261D-02  0.102042D+00  0.182293D-01 -0.741324D-01  0.941846D-01
     15  0.556235D-02  0.931477D-01 -0.695719D-01 -0.443726D-01  0.755978D-01
     16  0.485544D-02  0.837101D-01 -0.944637D-02  0.159485D-01  0.100166D+00
                6             7             8             9            10 
      6  0.100000D+01
      7  0.209761D+00  0.100000D+01
      8  0.212207D+00  0.211484D+00  0.100000D+01
      9  0.751571D-02  0.753857D-02  0.763849D-02  0.100000D+01
     10  0.123224D+00  0.123497D+00  0.124685D+00  0.248362D+00  0.100000D+01
     11  0.989469D-02 -0.282331D-01  0.925763D-01  0.000000D+00  0.000000D+00
     12 -0.213116D-01  0.930929D-01  0.617176D-01  0.000000D+00  0.000000D+00
     13 -0.152226D+00 -0.119800D+00 -0.108777D+00  0.000000D+00  0.000000D+00
     14  0.708009D-01  0.259310D-01  0.705658D-01  0.768750D-01  0.543793D+00
     15  0.719471D-01  0.705931D-01  0.265058D-01  0.768125D-01  0.543584D+00
     16  0.216185D-01  0.622703D-01  0.623859D-01  0.639042D-01  0.497134D+00
               11            12            13            14            15 
     11  0.100000D+01
     12  0.000000D+00  0.100000D+01
     13  0.000000D+00  0.000000D+00  0.100000D+01
     14  0.312643D+00 -0.372194D+00  0.992519D-01  0.100000D+01
     15 -0.466224D+00 -0.168634D+00  0.148795D-01  0.211965D+00  0.100000D+01
     16  0.591358D-01  0.348588D+00  0.311240D+00  0.189987D+00  0.188837D+00
               16 
     16  0.100000D+01
 *** Kinetic Energy *** 
                1             2             3             4             5 
      1  0.219908D+02
      2 -0.128416D+00  0.606994D+00
      3  0.000000D+00  0.000000D+00  0.189936D+01
      4  0.000000D+00  0.000000D+00  0.000000D+00  0.189936D+01
      5  0.000000D+00  0.000000D+00  0.000000D+00  0.000000D+00  0.189936D+01
      6 -0.620465D-02  0.122765D+00 -0.560544D-01 -0.210204D+00 -0.182177D+00
      7 -0.800807D-02  0.108378D+00 -0.172349D+00  0.184659D+00 -0.541667D-01
      8 -0.924724D-04  0.157884D+00  0.319901D+00  0.121342D+00 -0.220621D-01
      9 -0.163512D-05 -0.112928D-01  0.292201D-02  0.416164D-02 -0.119537D-01
     10 -0.662111D-02  0.203555D-01 -0.225477D-01 -0.321134D-01  0.922405D-01
     11 -0.226518D-02  0.254899D-01  0.295622D-01 -0.205707D-01  0.590860D-01
     12 -0.322616D-02  0.363037D-01 -0.205707D-01  0.147078D-01  0.841528D-01
     13  0.926664D-02 -0.104277D+00  0.590860D-01  0.841528D-01 -0.197710D+00
     14 -0.214049D-02 -0.166679D-01 -0.701482D-04  0.285269D-03 -0.362432D-03
     15 -0.204166D-02 -0.167792D-01  0.152270D-02  0.971169D-03 -0.165458D-02
     16 -0.193617D-02 -0.166943D-01  0.400006D-03 -0.675337D-03 -0.424152D-02
                6             7             8             9            10 
      6  0.760032D+00
      7  0.260462D-03  0.760032D+00
      8  0.676845D-03  0.552977D-03  0.760032D+00
      9 -0.266979D-02 -0.267338D-02 -0.268907D-02  0.158911D+02
     10 -0.137143D-01 -0.136949D-01 -0.136088D-01 -0.858900D-01  0.472250D+00
     11  0.391996D-03 -0.113056D-02  0.387886D-02  0.000000D+00  0.000000D+00
     12 -0.844298D-03  0.372779D-02  0.258590D-02  0.000000D+00  0.000000D+00
     13 -0.603070D-02 -0.479723D-02 -0.455766D-02  0.000000D+00  0.000000D+00
     14 -0.114363D-01 -0.809978D-02 -0.114334D-01 -0.545173D-02  0.138804D+00
     15 -0.114490D-01 -0.114338D-01 -0.819352D-02 -0.547946D-02  0.138671D+00
     16 -0.732862D-02 -0.112564D-01 -0.112600D-01 -0.101110D-01  0.110507D+00
               11            12            13            14            15 
     11  0.147773D+01
     12  0.000000D+00  0.147773D+01
     13  0.000000D+00  0.000000D+00  0.147773D+01
     14  0.201227D+00 -0.239556D+00  0.638817D-01  0.760032D+00
     15 -0.299919D+00 -0.108481D+00  0.957189D-02  0.635424D-03  0.760032D+00
     16  0.336483D-01  0.198347D+00  0.177096D+00 -0.283283D-02 -0.299809D-02
               16 
     16  0.760032D+00
 Entering OneElI...
 Calculate potential energy integrals
    NBasis =  16  MinDer = 0  MaxDer = 0
 Requested accuracy = 0.1000D-12
 PrmmSu-InSpLW:  IPartL=    0 NPrtUS=    1 NPrtUL=    1 DoSpLW=F IThBeg=    0 IThEnd=    0 NThAct=    1.
 PrsmSu:  NPrtUS=   1 ThrOK=F IAlg=1 NPAlg=1 LenDen=           0 ISkipM=0 DoSpLW=F IThBeg=    0 IThEnd=    0.
 Prism:   IPart=     0 DynPar=F LinDyn=F Incr=          13.
 PRISM was handed   131061379 working-precision words and    55 shell-pairs
 IPart=  0 NShTot=        1375 NBatch=          55 AvBLen=        25.0
 PrSmSu:  NxtVal=             14.
 ***** Potential Energy ***** 
                1             2             3             4             5 
      1  0.506404D+02
      2  0.647990D+01  0.112767D+02
      3 -0.745389D-02 -0.109979D+00  0.111749D+02
      4 -0.128784D-01 -0.170664D+00  0.381516D-01  0.111541D+02
      5  0.367219D-01  0.481543D+00 -0.486808D-01 -0.666753D-01  0.113315D+02
      6  0.164404D+01  0.470815D+01 -0.807340D+00 -0.291597D+01 -0.229498D+01
      7  0.150496D+01  0.445334D+01 -0.250877D+01  0.257847D+01 -0.604792D+00
      8  0.199101D+01  0.528279D+01  0.384182D+01  0.140650D+01 -0.735939D-01
      9  0.000000D+00  0.517732D+00 -0.200597D+00 -0.285776D+00  0.820671D+00
     10  0.697592D+00  0.300861D+01 -0.716775D+00 -0.102263D+01  0.293188D+01
     11  0.261426D+00  0.847499D+00  0.117841D+01 -0.345036D+00  0.992197D+00
     12  0.372302D+00  0.120399D+01 -0.343667D+00  0.929219D+00  0.140782D+01
     13 -0.106939D+01 -0.346587D+01  0.991753D+00  0.141279D+01 -0.263321D+01
     14  0.175202D+00  0.977689D+00  0.114623D+00 -0.655693D+00  0.911151D+00
     15  0.155997D+00  0.893895D+00 -0.601101D+00 -0.409491D+00  0.750227D+00
     16  0.136043D+00  0.794353D+00 -0.104458D+00  0.879406D-01  0.926352D+00
                6             7             8             9            10 
      6  0.755829D+01
      7  0.170869D+01  0.741935D+01
      8  0.178963D+01  0.176135D+01  0.782741D+01
      9  0.165029D+00  0.165489D+00  0.167752D+00  0.384358D+02
     10  0.113091D+01  0.112237D+01  0.116386D+01  0.538015D+01  0.990252D+01
     11  0.127466D+00 -0.170753D+00  0.788286D+00  0.140432D-01  0.168114D+00
     12 -0.964520D-01  0.791534D+00  0.565636D+00  0.164130D-01  0.208965D+00
     13 -0.139733D+01 -0.113024D+01 -0.108413D+01 -0.561317D-01 -0.661787D+00
     14  0.557994D+00  0.238904D+00  0.564702D+00  0.169538D+01  0.472590D+01
     15  0.559622D+00  0.546205D+00  0.246169D+00  0.169323D+01  0.469609D+01
     16  0.198645D+00  0.477712D+00  0.489527D+00  0.140338D+01  0.421620D+01
               11            12            13            14            15 
     11  0.976147D+01
     12  0.287295D-01  0.977217D+01
     13 -0.765758D-01 -0.108332D+00  0.100432D+02
     14  0.260304D+01 -0.294599D+01  0.563142D+00  0.736838D+01
     15 -0.370895D+01 -0.128883D+01 -0.116017D+00  0.168109D+01  0.729921D+01
     16  0.525493D+00  0.283194D+01  0.225764D+01  0.148676D+01  0.146955D+01
               16 
     16  0.709189D+01
 ****** Core Hamiltonian ****** 
                1             2             3             4             5 
      1 -0.286496D+02
      2 -0.660832D+01 -0.106697D+02
      3  0.745389D-02  0.109979D+00 -0.927552D+01
      4  0.128784D-01  0.170664D+00 -0.381516D-01 -0.925471D+01
      5 -0.367219D-01 -0.481543D+00  0.486808D-01  0.666753D-01 -0.943217D+01
      6 -0.165024D+01 -0.458539D+01  0.751285D+00  0.270577D+01  0.211280D+01
      7 -0.151297D+01 -0.434497D+01  0.233642D+01 -0.239381D+01  0.550625D+00
      8 -0.199111D+01 -0.512491D+01 -0.352192D+01 -0.128516D+01  0.515317D-01
      9 -0.196809D-05 -0.529025D+00  0.203519D+00  0.289937D+00 -0.832625D+00
     10 -0.704213D+00 -0.298826D+01  0.694227D+00  0.990513D+00 -0.283964D+01
     11 -0.263691D+00 -0.822010D+00 -0.114885D+01  0.324466D+00 -0.933111D+00
     12 -0.375529D+00 -0.116768D+01  0.323096D+00 -0.914512D+00 -0.132366D+01
     13  0.107866D+01  0.336160D+01 -0.932667D+00 -0.132863D+01  0.243550D+01
     14 -0.177343D+00 -0.994356D+00 -0.114693D+00  0.655979D+00 -0.911514D+00
     15 -0.158038D+00 -0.910674D+00  0.602623D+00  0.410462D+00 -0.751882D+00
     16 -0.137979D+00 -0.811048D+00  0.104858D+00 -0.886159D-01 -0.930593D+00
                6             7             8             9            10 
      6 -0.679826D+01
      7 -0.170843D+01 -0.665932D+01
      8 -0.178895D+01 -0.176080D+01 -0.706738D+01
      9 -0.167699D+00 -0.168163D+00 -0.170441D+00 -0.225446D+02
     10 -0.114462D+01 -0.113607D+01 -0.117746D+01 -0.546604D+01 -0.943027D+01
     11 -0.127074D+00  0.169622D+00 -0.784408D+00 -0.140432D-01 -0.168114D+00
     12  0.956077D-01 -0.787806D+00 -0.563050D+00 -0.164130D-01 -0.208965D+00
     13  0.139130D+01  0.112544D+01  0.107958D+01  0.561317D-01  0.661787D+00
     14 -0.569431D+00 -0.247004D+00 -0.576135D+00 -0.170083D+01 -0.458710D+01
     15 -0.571071D+00 -0.557639D+00 -0.254362D+00 -0.169870D+01 -0.455742D+01
     16 -0.205974D+00 -0.488968D+00 -0.500786D+00 -0.141349D+01 -0.410569D+01
               11            12            13            14            15 
     11 -0.828374D+01
     12 -0.287295D-01 -0.829445D+01
     13  0.765758D-01  0.108332D+00 -0.856550D+01
     14 -0.240181D+01  0.270643D+01 -0.499261D+00 -0.660835D+01
     15  0.340903D+01  0.118035D+01  0.125589D+00 -0.168046D+01 -0.653918D+01
     16 -0.491845D+00 -0.263359D+01 -0.208055D+01 -0.148959D+01 -0.147255D+01
               16 
     16 -0.633186D+01
 SVDSVc IOpt=   1 NormSV=T IR=1
 SVDSVc V= 2.59D+00 2.03D+00 1.65D+00 1.62D+00 1.36D+00 1.28D+00 1.24D+00 9.82D-01 9.63D-01 4.42D-01
 SVDSVc V= 4.01D-01 3.53D-01 3.36D-01 3.06D-01 2.49D-01 1.88D-01
 TstOVc:  Largest diagonal error= 2.44D-15 IB=1 I=    5.
 TstOVc:  Largest same sym error= 1.99D-15 IB=1 I=    8 J=    7.
 Orthogonalized basis functions: 
                 1             2             3             4             5 
      1   0.717007D-01  0.942115D-01  0.375232D-02 -0.283488D-02  0.287276D-01
      2   0.286807D+00  0.259910D+00  0.319106D-02 -0.365647D-02  0.418648D-01
      3  -0.131906D-01  0.388704D-01  0.376585D+00 -0.139152D+00 -0.204960D+00
      4  -0.198855D-01  0.606982D-01  0.122004D+00  0.354994D+00 -0.166566D+00
      5   0.491559D-01 -0.143008D+00  0.128170D+00  0.940772D-01  0.536296D+00
      6   0.184788D+00  0.192014D+00 -0.163174D+00 -0.200825D+00 -0.111458D+00
      7   0.178889D+00  0.192363D+00 -0.127251D+00  0.221539D+00 -0.519444D-01
      8   0.190145D+00  0.218758D+00  0.252866D+00 -0.852753D-02 -0.177454D+00
      9   0.785087D-01 -0.103726D+00  0.407696D-02  0.646926D-02  0.591258D-01
     10   0.295013D+00 -0.257693D+00  0.104302D-01  0.179140D-01  0.731182D-01
     11   0.151611D-01  0.499302D-01  0.409366D+00 -0.181065D+00  0.185785D+00
     12   0.124433D-01  0.904433D-01  0.120872D+00  0.426299D+00  0.175222D+00
     13  -0.681420D-01 -0.199271D+00  0.148130D+00  0.123167D+00 -0.473186D+00
     14   0.185780D+00 -0.221272D+00  0.140087D+00 -0.263581D+00 -0.375297D-01
     15   0.181958D+00 -0.225713D+00 -0.273638D+00  0.335108D-01 -0.143359D+00
     16   0.163957D+00 -0.202222D+00  0.167701D+00  0.267529D+00 -0.805737D-01
                 6             7             8             9            10 
      1   0.166563D-01 -0.190029D-01  0.889987D+00  0.409050D+00 -0.532770D-01
      2   0.109345D-01 -0.144135D-01  0.367582D-01 -0.130941D-01  0.140080D+00
      3   0.373998D+00 -0.263381D+00 -0.368675D-01  0.913843D-02  0.110303D-01
      4   0.205199D+00  0.462049D+00 -0.177930D-01  0.460848D-01 -0.377744D+00
      5   0.244414D+00  0.180869D-01  0.630062D-01 -0.135682D+00  0.866123D+00
      6  -0.277991D+00 -0.236353D+00 -0.109324D+00 -0.417582D-01  0.231475D+00
      7  -0.110288D+00  0.374476D+00 -0.993886D-01 -0.426145D-01  0.444231D+00
      8   0.298497D+00 -0.706180D-01 -0.113207D+00 -0.474119D-01  0.100293D+00
      9   0.167054D-01 -0.136155D-01 -0.397802D+00  0.898580D+00  0.863642D-01
     10   0.108015D-01 -0.177314D-01 -0.230939D-01 -0.124592D-01 -0.204090D+00
     11  -0.336831D+00  0.206635D+00 -0.242824D-01 -0.128562D-02 -0.142247D+00
     12  -0.170813D+00 -0.353273D+00 -0.508239D-01 -0.108261D-01 -0.288113D+00
     13  -0.221695D+00 -0.734612D-02  0.119210D+00  0.484118D-01  0.894383D+00
     14  -0.978453D-01  0.311258D+00  0.534871D-01 -0.986966D-01 -0.237206D+00
     15   0.305348D+00 -0.758456D-01  0.509178D-01 -0.110967D+00 -0.130646D+00
     16  -0.260709D+00 -0.222791D+00  0.559936D-01 -0.112242D+00 -0.241853D+00
                11            12            13            14            15 
      1   0.382302D-01 -0.763272D-01  0.535628D-01 -0.464129D-01 -0.280662D+00
      2  -0.111684D+00  0.254428D+00 -0.201668D+00  0.190712D+00  0.141880D+01
      3   0.449417D+00 -0.761659D+00  0.418370D+00 -0.318006D+00  0.360577D+00
      4  -0.779546D+00 -0.254966D+00  0.444913D+00 -0.200988D-01  0.150877D+00
      5  -0.323179D+00 -0.633280D-01  0.278002D+00 -0.117956D+00 -0.171081D+00
      6  -0.752773D+00 -0.522615D+00  0.580835D+00 -0.201858D+00 -0.449275D+00
      7   0.909045D+00 -0.400437D+00  0.125193D+00 -0.195347D+00 -0.373185D+00
      8  -0.135357D+00  0.762735D+00 -0.429907D+00  0.140401D+00 -0.963996D+00
      9   0.227463D-02  0.372433D-01  0.546031D-01 -0.733403D-02 -0.700969D-01
     10  -0.920366D-02 -0.102176D+00 -0.187863D+00  0.327968D-01  0.381592D+00
     11   0.515037D-01 -0.338817D+00  0.294632D-01  0.108302D+01 -0.189788D+00
     12  -0.115658D+00 -0.590597D+00 -0.811241D+00 -0.253202D+00 -0.203552D+00
     13  -0.231737D+00 -0.546239D-01 -0.417353D+00  0.180318D+00  0.256041D+00
     14  -0.119049D+00 -0.144959D+00 -0.471377D+00 -0.933091D+00 -0.215046D+00
     15   0.214692D-01 -0.498283D+00 -0.127153D+00  0.930365D+00 -0.351726D+00
     16   0.264947D+00  0.593165D+00  0.913470D+00 -0.648642D-01 -0.108674D+00
                16 
      1   0.120725D+00
      2  -0.664561D+00
      3   0.227216D-01
      4   0.817580D-01
      5  -0.198831D+00
      6   0.170191D+00
      7   0.142124D+00
      8   0.224757D+00
      9  -0.308703D+00
     10   0.172701D+01
     11  -0.401560D-01
     12  -0.240466D+00
     13   0.633722D-01
     14  -0.826862D+00
     15  -0.799933D+00
     16  -0.513141D+00
 NBasis=    16 RedAO= T EigKep=  1.88D-01  NBF=    16
 NBsUse=    16 1.00D-06 EigRej= -1.00D+00 NBFU=    16
 Precomputing XC quadrature grid using
 IXCGrd= 4 IRadAn=           5 IRanWt=          -1 IRanGd=           0 AccXCQ= 0.00D+00.
 SetAtRh:  ITypeU=  23 NETotI=       0 ICharg=  1 NETot=       0.
 StAtR1:  I=    1 I1=    1 IA=  7 C=   7.0 OKShel=TTT
                                                  SSP
                                                  223
 StAtR1:  I=    2 I1=    2 IA=  1 C=   1.0 OKShel=T
                                                  S
                                                  1
 StAtR1:  I=    3 I1=    3 IA=  1 C=   1.0 OKShel=T
                                                  S
                                                  1
 StAtR1:  I=    4 I1=    4 IA=  1 C=   1.0 OKShel=T
                                                  S
                                                  1
 StAtR1:  I=    5 I1=    5 IA=  6 C=   6.0 OKShel=TTT
                                                  SSP
                                                  222
 StAtR1:  I=    6 I1=    6 IA=  1 C=   1.0 OKShel=T
                                                  S
                                                  1
 StAtR1:  I=    7 I1=    7 IA=  1 C=   1.0 OKShel=T
                                                  S
                                                  1
 StAtR1:  I=    8 I1=    8 IA=  1 C=   1.0 OKShel=T
                                                  S
                                                  1
          I=    1 IA=  7 I1=    1 NAtG= 0 NE=   7.000 C=   0.000 Err=-7.00D+00
          I=    2 IA=  1 I1=    2 NAtG= 0 NE=   1.000 C=   0.000 Err=-1.00D+00
          I=    3 IA=  1 I1=    3 NAtG= 0 NE=   1.000 C=   0.000 Err=-1.00D+00
          I=    4 IA=  1 I1=    4 NAtG= 0 NE=   1.000 C=   0.000 Err=-1.00D+00
          I=    5 IA=  6 I1=    5 NAtG= 0 NE=   6.000 C=   0.000 Err=-6.00D+00
          I=    6 IA=  1 I1=    6 NAtG= 0 NE=   1.000 C=   0.000 Err=-1.00D+00
          I=    7 IA=  1 I1=    7 NAtG= 0 NE=   1.000 C=   0.000 Err=-1.00D+00
          I=    8 IA=  1 I1=    8 NAtG= 0 NE=   1.000 C=   0.000 Err=-1.00D+00
 Generated NRdTot=       0 NPtTot=           0 NUsed=           0 NTot=          32
 NSgBfM=    16    16    16    16    16 MxSgAt=     8 MxSgA2=     8.
 IGWInf( 1) =          32 (NGWInf)
 IGWInf( 2) =           8 (NAtomA)
 IGWInf( 3) =           5 (IRadAn)
 IGWInf( 4) =          -1 (IRanWt)
 IGWInf( 5) =           0 (IRanGd)
 IGWInf( 6) =           2 (IRType)
 IGWInf( 7) =           0 (NRdTot)
 IGWInf( 8) =           0 (NGWTot)
 IGWInf( 9) =      173132 (LGWBtD)
 IGWInf(10) =           0 (NAtBtD)
 IGWInf(11) =           0 (NIRBtD)
 IGWInf(12) =           0 (NRRBtD)
 IGWInf(13) =           1 (NClRep)
 IGWInf(14) =           0 (ICntr3)
 IGWInf(15) =           0 (IPFlag)
 IGWInf(16) =           0 (IGet)  
 IGWInf(17) =           0         
 IGWInf(18) =          16         
 IGWInf(19) =          16         
 IGWInf(20) =          16         
 IGWInf(21) =          16         
 IGWInf(22) =          16         
 IGWInf(23) =           8         
 IGWInf(24) =           8         
 IGWInf(25) =           0         
 IGWInf(26) =           0         
 IGWInf(27) =           0         
 IGWInf(28) =           0         
 IGWInf(29) =           0         
 IGWInf(30) =           0         
 IGWInf(31) =           0         
 IGWInf(32) =           0         
 IAtBtD: 
              1            2            3            4            5
              6            7            8
 Leave Link  302 at Fri May 22 12:39:13 2026, MaxMem=   131072000 cpu:               0.1 elap:               0.3
 (Enter /afs/math/software/gaussian/g16.A03/g16/l303.exe)
 DipDrv:  MaxL=1.
 DipPsm:  J= 1 NJ= 4 MaxL=1 MMat= 4 MaxMat= 4.
 DipInt: DoE/N= T F RetVal/Mat= F T Init=T NMatP=  4 IDeriv=0 Min/MaxMlt=  0  1
 Entering OneElI...
 Multipole integrals L=0 to 1 MinM= 0 MaxM= 3.
 Requested accuracy = 0.1000D-12
 PrmmSu-InSpLW:  IPartL=    0 NPrtUS=    1 NPrtUL=    1 DoSpLW=F IThBeg=    0 IThEnd=    0 NThAct=    1.
 PrsmSu:  NPrtUS=   1 ThrOK=F IAlg=1 NPAlg=1 LenDen=           0 ISkipM=0 DoSpLW=F IThBeg=    0 IThEnd=    0.
 Prism:   IPart=     0 DynPar=F LinDyn=F Incr=           1.
 PRISM was handed   131062647 working-precision words and    55 shell-pairs
 IPart=  0 NShTot=          55 NBatch=           6 AvBLen=         9.2
 PrSmSu:  NxtVal=              2.
 Multipole matrices IBuc=  518 IX=    1 IJ=           1:
                1             2             3             4             5 
      1  0.905179D+02
      2  0.212751D+02  0.905179D+02
      3  0.579343D-01  0.739815D+00  0.905179D+02
      4  0.000000D+00  0.000000D+00  0.000000D+00  0.905179D+02
      5  0.000000D+00  0.000000D+00  0.000000D+00  0.000000D+00  0.905179D+02
      6  0.528120D+01  0.446837D+02 -0.750514D+01 -0.294163D+02 -0.254942D+02
      7  0.483844D+01  0.424232D+02 -0.252597D+02  0.274105D+02 -0.804042D+01
      8  0.638251D+01  0.498099D+02  0.400101D+02  0.150340D+02 -0.273346D+01
      9  0.252393D-05  0.212674D+01 -0.817944D+00 -0.116719D+01  0.335258D+01
     10  0.224354D+01  0.259840D+02 -0.595589D+01 -0.877080D+01  0.251927D+02
     11  0.841480D+00  0.727799D+01  0.120064D+02 -0.308146D+01  0.885099D+01
     12  0.119682D+01  0.101014D+02 -0.294251D+01  0.981809D+01  0.123473D+02
     13 -0.343769D+01 -0.290146D+02  0.845188D+01  0.123473D+02 -0.213489D+02
     14  0.565160D+00  0.926062D+01  0.172670D+01 -0.672786D+01  0.854769D+01
     15  0.503146D+00  0.833969D+01 -0.616221D+01 -0.397243D+01  0.676785D+01
     16  0.439458D+00  0.756473D+01 -0.794000D+00  0.144122D+01  0.905173D+01
                6             7             8             9            10 
      6  0.901399D+02
      7  0.188087D+02  0.891951D+02
      8  0.193428D+02  0.191770D+02  0.921619D+02
      9  0.675685D+00  0.677485D+00  0.687278D+00  0.898943D+02
     10  0.110917D+02  0.110602D+02  0.113444D+02  0.223264D+02  0.898943D+02
     11  0.979074D+00 -0.244000D+01  0.851113D+01  0.718555D-01  0.838744D+00
     12 -0.191828D+01  0.833766D+01  0.561443D+01  0.000000D+00  0.000000D+00
     13 -0.137020D+02 -0.107296D+02 -0.989544D+01  0.000000D+00  0.000000D+00
     14  0.641543D+01  0.233742D+01  0.646548D+01  0.691694D+01  0.492259D+02
     15  0.641257D+01  0.625854D+01  0.238923D+01  0.689560D+01  0.483549D+02
     16  0.194880D+01  0.558395D+01  0.568685D+01  0.574567D+01  0.447563D+02
               11            12            13            14            15 
     11  0.898943D+02
     12  0.000000D+00  0.898943D+02
     13  0.000000D+00  0.000000D+00  0.898943D+02
     14  0.286897D+02 -0.336858D+02  0.898287D+01  0.910848D+02
     15 -0.410919D+02 -0.150054D+02  0.132400D+01  0.189924D+02  0.881179D+02
     16  0.568207D+01  0.313817D+02  0.280194D+02  0.172162D+02  0.168318D+02
               16 
     16  0.901502D+02
 Multipole matrices IBuc=  518 IX=    2 IJ=           1:
                1             2             3             4             5 
      1  0.161798D+03
      2  0.380287D+02  0.161798D+03
      3  0.000000D+00  0.000000D+00  0.161798D+03
      4  0.579343D-01  0.739815D+00  0.000000D+00  0.161798D+03
      5  0.000000D+00  0.000000D+00  0.000000D+00  0.000000D+00  0.161798D+03
      6  0.943783D+01  0.796952D+02 -0.139908D+02 -0.521264D+02 -0.454702D+02
      7  0.865841D+01  0.766815D+02 -0.462413D+02  0.498677D+02 -0.145330D+02
      8  0.113998D+02  0.884231D+02  0.703636D+02  0.270645D+02 -0.485266D+01
      9  0.451412D-05  0.380653D+01 -0.146679D+01 -0.208749D+01  0.600050D+01
     10  0.401048D+01  0.464745D+02 -0.110140D+02 -0.154843D+02  0.450573D+02
     11  0.150215D+01  0.126864D+02  0.214590D+02 -0.534535D+01  0.155064D+02
     12  0.214058D+01  0.182540D+02 -0.544291D+01  0.175732D+02  0.222665D+02
     13 -0.614517D+01 -0.518989D+02  0.155064D+02  0.218674D+02 -0.381857D+02
     14  0.100967D+01  0.164129D+02  0.293191D+01 -0.118508D+02  0.151482D+02
     15  0.899758D+00  0.150126D+02 -0.112125D+02 -0.708512D+01  0.121837D+02
     16  0.785680D+00  0.135653D+02 -0.153081D+01  0.264413D+01  0.162322D+02
                6             7             8             9            10 
      6  0.160381D+03
      7  0.339389D+02  0.163216D+03
      8  0.342505D+02  0.344335D+02  0.162422D+03
      9  0.120921D+01  0.121365D+01  0.122953D+01  0.160910D+03
     10  0.197967D+02  0.200086D+02  0.201537D+02  0.399640D+02  0.160910D+03
     11  0.158968D+01 -0.457385D+01  0.149629D+02  0.000000D+00  0.000000D+00
     12 -0.333547D+01  0.151700D+02  0.100647D+02  0.718555D-01  0.838744D+00
     13 -0.244565D+02 -0.194079D+02 -0.175814D+02  0.000000D+00  0.000000D+00
     14  0.113237D+02  0.418408D+01  0.113581D+02  0.123625D+02  0.870946D+02
     15  0.115349D+02  0.114178D+02  0.427658D+01  0.123565D+02  0.872836D+02
     16  0.348922D+01  0.101387D+02  0.101327D+02  0.102890D+02  0.803876D+02
               11            12            13            14            15 
     11  0.160910D+03
     12  0.000000D+00  0.160910D+03
     13  0.000000D+00  0.000000D+00  0.160910D+03
     14  0.500799D+02 -0.592252D+02  0.158984D+02  0.159493D+03
     15 -0.748664D+02 -0.266858D+02  0.238935D+01  0.338891D+02  0.160268D+03
     16  0.956117D+01  0.567187D+02  0.503218D+02  0.305796D+02  0.304676D+02
               16 
     16  0.162419D+03
 Multipole matrices IBuc=  518 IX=    3 IJ=           1:
                1             2             3             4             5 
      1  0.588083D+02
      2  0.138222D+02  0.588083D+02
      3  0.000000D+00  0.000000D+00  0.588083D+02
      4  0.000000D+00  0.000000D+00  0.000000D+00  0.588083D+02
      5  0.579343D-01  0.739815D+00  0.000000D+00  0.000000D+00  0.588083D+02
      6  0.342825D+01  0.287976D+02 -0.505564D+01 -0.189586D+02 -0.160916D+02
      7  0.314462D+01  0.276616D+02 -0.166811D+02  0.178726D+02 -0.491919D+01
      8  0.414216D+01  0.320491D+02  0.255038D+02  0.967387D+01 -0.138402D+01
      9  0.167443D-05  0.144738D+01 -0.557499D+00 -0.794014D+00  0.228225D+01
     10  0.146027D+01  0.172583D+02 -0.408376D+01 -0.581626D+01  0.169086D+02
     11  0.547194D+00  0.472274D+01  0.797291D+01 -0.200680D+01  0.581739D+01
     12  0.779337D+00  0.672633D+01 -0.200680D+01  0.652377D+01  0.828537D+01
     13 -0.223737D+01 -0.191348D+02  0.571982D+01  0.814642D+01 -0.142348D+02
     14  0.367594D+00  0.612467D+01  0.109433D+01 -0.445029D+01  0.572637D+01
     15  0.327488D+00  0.557764D+01 -0.416650D+01 -0.265737D+01  0.459356D+01
     16  0.286029D+00  0.505575D+01 -0.570608D+00  0.963368D+00  0.611017D+01
                6             7             8             9            10 
      6  0.575800D+02
      7  0.121632D+02  0.583925D+02
      8  0.123371D+02  0.123810D+02  0.586949D+02
      9  0.460142D+00  0.461761D+00  0.467964D+00  0.613594D+02
     10  0.733733D+01  0.740172D+01  0.749098D+01  0.152394D+02  0.613594D+02
     11  0.589408D+00 -0.169266D+01  0.556343D+01  0.000000D+00  0.000000D+00
     12 -0.126949D+01  0.558120D+01  0.370896D+01  0.000000D+00  0.000000D+00
     13 -0.897937D+01 -0.709373D+01 -0.644755D+01  0.718555D-01  0.838744D+00
     14  0.422388D+01  0.155755D+01  0.424920D+01  0.471901D+01  0.334754D+02
     15  0.428071D+01  0.422883D+01  0.159182D+01  0.471347D+01  0.333703D+02
     16  0.130021D+01  0.377044D+01  0.378687D+01  0.392667D+01  0.308554D+02
               11            12            13            14            15 
     11  0.613594D+02
     12  0.000000D+00  0.613594D+02
     13  0.000000D+00  0.000000D+00  0.613594D+02
     14  0.192443D+02 -0.229099D+02  0.650299D+01  0.617374D+02
     15 -0.286208D+02 -0.103522D+02  0.130696D+01  0.130521D+02  0.614161D+02
     16  0.366927D+01  0.216293D+02  0.196702D+02  0.118214D+02  0.117195D+02
               16 
     16  0.627066D+02
 Fermi contact integrals: 
                 1             2             3             4             5 
      1   0.783766D+01  0.000000D+00  0.000000D+00  0.000000D+00  0.000000D+00
      2   0.260206D+00  0.788920D-01  0.715888D-01  0.972054D-01  0.219948D-01
      3   0.000000D+00 -0.266744D-01 -0.810302D-01  0.158235D+00 -0.863324D-02
      4   0.000000D+00 -0.100029D+00  0.868180D-01  0.600203D-01 -0.122958D-01
      5   0.000000D+00 -0.866917D-01 -0.254666D-01 -0.109128D-01  0.353178D-01
      6   0.722855D-01  0.628247D+00  0.172122D-01  0.175079D-01  0.709375D-02
      7   0.660258D-01  0.172122D-01  0.628247D+00  0.174203D-01  0.711584D-02
      8   0.880264D-01  0.175079D-01  0.174203D-01  0.628247D+00  0.721240D-02
      9   0.000000D+00  0.000000D+00  0.000000D+00  0.000000D+00  0.614289D+01
     10   0.303791D-01  0.626758D-02  0.629309D-02  0.640483D-02  0.215555D+00
     11   0.113884D-01  0.817597D-03 -0.233659D-02  0.771438D-02  0.000000D+00
     12   0.162198D-01 -0.176098D-02  0.770444D-02  0.514292D-02  0.000000D+00
     13  -0.465887D-01 -0.125784D-01 -0.991472D-02 -0.906439D-02  0.000000D+00
     14   0.760676D-02  0.339623D-02  0.665157D-03  0.337863D-02  0.745878D-01
     15   0.676411D-02  0.348243D-02  0.338068D-02  0.690080D-03  0.745235D-01
     16   0.588891D-02  0.489309D-03  0.277612D-02  0.278426D-02  0.613901D-01
                 6             7             8 
      1   0.000000D+00  0.000000D+00  0.000000D+00
      2   0.335867D-02  0.275947D-02  0.218675D-02
      3   0.114085D-02 -0.396652D-02 -0.481374D-03
      4  -0.463944D-02 -0.252983D-02  0.812712D-03
      5   0.589437D-02  0.431007D-02  0.510432D-02
      6   0.339623D-02  0.348243D-02  0.489309D-03
      7   0.665157D-03  0.338068D-02  0.277612D-02
      8   0.337863D-02  0.690080D-03  0.278426D-02
      9   0.275187D-05  0.272769D-05  0.000000D+00
     10   0.917324D-01  0.916600D-01  0.766001D-01
     11   0.101848D+00 -0.151784D+00  0.167041D-01
     12  -0.121248D+00 -0.549004D-01  0.984661D-01
     13   0.323328D-01  0.484415D-02  0.879162D-01
     14   0.628247D+00  0.174786D-01  0.148913D-01
     15   0.174786D-01  0.628247D+00  0.147600D-01
     16   0.148913D-01  0.147600D-01  0.628247D+00
 Leave Link  303 at Fri May 22 12:39:13 2026, MaxMem=   131072000 cpu:               0.0 elap:               0.1
 (Enter /afs/math/software/gaussian/g16.A03/g16/l401.exe)
 Projected New-EHT guess.
 Enter ItEHT:  IZDO=4 IZDPar=0 Conv= 1.00D-06 N=   14
 It=   1                  EEH= -43.5800943512     EQH= 0.000000000000E+00 EH= -43.5800943512    
 JPrj=0 DoOrth=T DoCkMO=T.
 Leave Link  401 at Fri May 22 12:39:13 2026, MaxMem=   131072000 cpu:               0.1 elap:               0.2
 (Enter /afs/math/software/gaussian/g16.A03/g16/l502.exe)
 Keep J ints in memory in canonical form, NReq=871357.
 FoFCou: FMM=F IPFlag=           0 FMFlag=           0 FMFlg1=           0
         NFxFlg=           0 DoJE=F BraDBF=F KetDBF=F FulRan=T
         wScrn=  0.000000 ICntrl=       600 IOpCl=  0 I1Cent=           0 NGrid=           0
         NMat0=    1 NMatS0=    136 NMatT0=    0 NMatD0=    1 NMtDS0=    0 NMtDT0=    0
 Symmetry not used in FoFCou.
 Two-electron integral symmetry not used.
 Closed shell SCF:
 Using DIIS extrapolation, IDIIS=  1040.
 NGot=   131072000 LenX=   131061156 LenY=   131060274
 Requested convergence on RMS density matrix=1.00D-08 within 128 cycles.
 Requested convergence on MAX density matrix=1.00D-06.
 Requested convergence on             energy=1.00D-06.
 No special actions if energy rises.
 Integral accuracy reduced to 1.0D-05 until final iterations.

 Cycle   1  Pass 0  IDiag  1:
 E= -95.3612049102163    
 DIIS: error= 3.79D-01 at cycle   1 NSaved=   1.
 NSaved= 1 IEnMin= 1 EnMin= -95.3612049102163     IErMin= 1 ErrMin= 3.79D-01
 ErrMax= 3.79D-01  0.00D+00 EMaxC= 1.00D-01 BMatC= 2.32D+00 BMatP= 2.32D+00
 IDIUse=3 WtCom= 0.00D+00 WtEn= 1.00D+00
 Coeff-Com:  0.100D+01
 Coeff-En:   0.100D+01
 Coeff:      0.100D+01
 Gap=     0.578 Goal=   None    Shift=    0.000
 GapD=    0.578 DampG=2.000 DampE=0.250 DampFc=0.5000 IDamp=-1.
 Damping current iteration by 5.00D-01
 RMSDP=2.96D-02 MaxDP=2.43D-01              OVMax= 0.00D+00

 Cycle   2  Pass 0  IDiag  1:
 E= -95.5653070728258     Delta-E=       -0.204102162610 Rises=F Damp=T
 DIIS: error= 1.92D-01 at cycle   2 NSaved=   2.
 NSaved= 2 IEnMin= 2 EnMin= -95.5653070728258     IErMin= 2 ErrMin= 1.92D-01
 ErrMax= 1.92D-01  0.00D+00 EMaxC= 1.00D-01 BMatC= 5.70D-01 BMatP= 2.32D+00
 IDIUse=3 WtCom= 0.00D+00 WtEn= 1.00D+00
 Coeff-Com: -0.967D+00 0.197D+01
 Coeff-En:   0.000D+00 0.100D+01
 Coeff:      0.000D+00 0.100D+01
 Gap=     0.572 Goal=   None    Shift=    0.000
 RMSDP=1.29D-02 MaxDP=6.92D-02 DE=-2.04D-01 OVMax= 0.00D+00

 Cycle   3  Pass 0  IDiag  1:
 E= -95.7690850036135     Delta-E=       -0.203777930788 Rises=F Damp=F
 DIIS: error= 2.61D-03 at cycle   3 NSaved=   3.
 NSaved= 3 IEnMin= 3 EnMin= -95.7690850036135     IErMin= 3 ErrMin= 2.61D-03
 ErrMax= 2.61D-03  0.00D+00 EMaxC= 1.00D-01 BMatC= 2.00D-04 BMatP= 5.70D-01
 IDIUse=3 WtCom= 9.74D-01 WtEn= 2.61D-02
 Coeff-Com: -0.900D-01 0.189D+00 0.901D+00
 Coeff-En:   0.000D+00 0.000D+00 0.100D+01
 Coeff:     -0.876D-01 0.184D+00 0.904D+00
 Gap=     0.570 Goal=   None    Shift=    0.000
 RMSDP=1.10D-03 MaxDP=6.02D-03 DE=-2.04D-01 OVMax= 0.00D+00

 Cycle   4  Pass 0  IDiag  1:
 E= -95.7692621269307     Delta-E=       -0.000177123317 Rises=F Damp=F
 DIIS: error= 5.07D-04 at cycle   4 NSaved=   4.
 NSaved= 4 IEnMin= 4 EnMin= -95.7692621269307     IErMin= 4 ErrMin= 5.07D-04
 ErrMax= 5.07D-04  0.00D+00 EMaxC= 1.00D-01 BMatC= 6.43D-06 BMatP= 2.00D-04
 IDIUse=3 WtCom= 9.95D-01 WtEn= 5.07D-03
 Coeff-Com: -0.277D-01 0.583D-01 0.306D+00 0.663D+00
 Coeff-En:   0.000D+00 0.000D+00 0.000D+00 0.100D+01
 Coeff:     -0.275D-01 0.580D-01 0.305D+00 0.665D+00
 Gap=     0.569 Goal=   None    Shift=    0.000
 RMSDP=2.63D-04 MaxDP=1.91D-03 DE=-1.77D-04 OVMax= 0.00D+00

 Cycle   5  Pass 0  IDiag  1:
 E= -95.7692694406626     Delta-E=       -0.000007313732 Rises=F Damp=F
 DIIS: error= 1.26D-04 at cycle   5 NSaved=   5.
 NSaved= 5 IEnMin= 5 EnMin= -95.7692694406626     IErMin= 5 ErrMin= 1.26D-04
 ErrMax= 1.26D-04  0.00D+00 EMaxC= 1.00D-01 BMatC= 4.19D-07 BMatP= 6.43D-06
 IDIUse=3 WtCom= 9.99D-01 WtEn= 1.26D-03
 Coeff-Com: -0.599D-02 0.126D-01 0.694D-01 0.256D+00 0.668D+00
 Coeff-En:   0.000D+00 0.000D+00 0.000D+00 0.000D+00 0.100D+01
 Coeff:     -0.599D-02 0.126D-01 0.693D-01 0.256D+00 0.668D+00
 Gap=     0.569 Goal=   None    Shift=    0.000
 RMSDP=5.94D-05 MaxDP=4.02D-04 DE=-7.31D-06 OVMax= 0.00D+00

 Cycle   6  Pass 0  IDiag  1:
 E= -95.7692700574901     Delta-E=       -0.000000616828 Rises=F Damp=F
 DIIS: error= 7.67D-06 at cycle   6 NSaved=   6.
 NSaved= 6 IEnMin= 6 EnMin= -95.7692700574901     IErMin= 6 ErrMin= 7.67D-06
 ErrMax= 7.67D-06  0.00D+00 EMaxC= 1.00D-01 BMatC= 1.61D-09 BMatP= 4.19D-07
 IDIUse=1 WtCom= 1.00D+00 WtEn= 0.00D+00
 Coeff-Com: -0.281D-03 0.592D-03 0.362D-02 0.195D-01 0.993D-01 0.877D+00
 Coeff:     -0.281D-03 0.592D-03 0.362D-02 0.195D-01 0.993D-01 0.877D+00
 Gap=     0.569 Goal=   None    Shift=    0.000
 RMSDP=4.35D-06 MaxDP=3.89D-05 DE=-6.17D-07 OVMax= 0.00D+00

 Initial convergence to 1.0D-05 achieved.  Increase integral accuracy.
 Cycle   7  Pass 1  IDiag  1:
 E= -95.7692756810777     Delta-E=       -0.000005623588 Rises=F Damp=F
 DIIS: error= 7.59D-07 at cycle   1 NSaved=   1.
 NSaved= 1 IEnMin= 1 EnMin= -95.7692756810777     IErMin= 1 ErrMin= 7.59D-07
 ErrMax= 7.59D-07  0.00D+00 EMaxC= 1.00D-01 BMatC= 1.73D-11 BMatP= 1.73D-11
 IDIUse=1 WtCom= 1.00D+00 WtEn= 0.00D+00
 Coeff-Com:  0.100D+01
 Coeff:      0.100D+01
 Gap=     0.569 Goal=   None    Shift=    0.000
 RMSDP=4.35D-06 MaxDP=3.89D-05 DE=-5.62D-06 OVMax= 0.00D+00

 Cycle   8  Pass 1  IDiag  1:
 E= -95.7692756811062     Delta-E=       -0.000000000029 Rises=F Damp=F
 DIIS: error= 3.06D-07 at cycle   2 NSaved=   2.
 NSaved= 2 IEnMin= 2 EnMin= -95.7692756811062     IErMin= 2 ErrMin= 3.06D-07
 ErrMax= 3.06D-07  0.00D+00 EMaxC= 1.00D-01 BMatC= 2.77D-12 BMatP= 1.73D-11
 IDIUse=1 WtCom= 1.00D+00 WtEn= 0.00D+00
 Coeff-Com:  0.274D+00 0.726D+00
 Coeff:      0.274D+00 0.726D+00
 Gap=     0.569 Goal=   None    Shift=    0.000
 RMSDP=2.01D-07 MaxDP=1.27D-06 DE=-2.85D-11 OVMax= 0.00D+00

 Cycle   9  Pass 1  IDiag  1:
 E= -95.7692756811105     Delta-E=       -0.000000000004 Rises=F Damp=F
 DIIS: error= 6.96D-08 at cycle   3 NSaved=   3.
 NSaved= 3 IEnMin= 3 EnMin= -95.7692756811105     IErMin= 3 ErrMin= 6.96D-08
 ErrMax= 6.96D-08  0.00D+00 EMaxC= 1.00D-01 BMatC= 1.55D-13 BMatP= 2.77D-12
 IDIUse=1 WtCom= 1.00D+00 WtEn= 0.00D+00
 Coeff-Com:  0.851D-01 0.280D+00 0.635D+00
 Coeff:      0.851D-01 0.280D+00 0.635D+00
 Gap=     0.569 Goal=   None    Shift=    0.000
 RMSDP=3.78D-08 MaxDP=2.42D-07 DE=-4.26D-12 OVMax= 0.00D+00

 Cycle  10  Pass 1  IDiag  1:
 E= -95.7692756811107     Delta-E=       -0.000000000000 Rises=F Damp=F
 DIIS: error= 1.91D-08 at cycle   4 NSaved=   4.
 NSaved= 4 IEnMin= 4 EnMin= -95.7692756811107     IErMin= 4 ErrMin= 1.91D-08
 ErrMax= 1.91D-08  0.00D+00 EMaxC= 1.00D-01 BMatC= 6.48D-15 BMatP= 1.55D-13
 IDIUse=1 WtCom= 1.00D+00 WtEn= 0.00D+00
 Coeff-Com:  0.998D-02 0.434D-01 0.211D+00 0.735D+00
 Coeff:      0.998D-02 0.434D-01 0.211D+00 0.735D+00
 Gap=     0.569 Goal=   None    Shift=    0.000
 RMSDP=7.60D-09 MaxDP=5.00D-08 DE=-2.84D-13 OVMax= 0.00D+00

 SCF Done:  E(RB-P86) =  -95.7692756811     A.U. after   10 cycles
            NFock= 10  Conv=0.76D-08     -V/T= 2.0300
 KE= 9.297928254581D+01 PE=-3.106349553633D+02 EE= 7.444616370535D+01
 Leave Link  502 at Fri May 22 12:39:15 2026, MaxMem=   131072000 cpu:               2.2 elap:               2.4
 (Enter /afs/math/software/gaussian/g16.A03/g16/l601.exe)
 Copying SCF densities to generalized density rwf, IOpCl= 0 IROHF=0.

 **********************************************************************

            Population analysis using the SCF density.

 **********************************************************************

 Alpha  occ. eigenvalues --  -14.23365  -9.98837  -1.11494  -0.82748  -0.74000
 Alpha  occ. eigenvalues --   -0.69950  -0.60895  -0.53544  -0.52533
 Alpha virt. eigenvalues --    0.04413   0.05364   0.07092   0.15578   0.21163
 Alpha virt. eigenvalues --    0.30344   0.35644
     Molecular Orbital Coefficients:
                           1         2         3         4         5
                           O         O         O         O         O
     Eigenvalues --   -14.23365  -9.98837  -1.11494  -0.82748  -0.74000
   1 1   N  1S          0.99181   0.00085  -0.22738   0.05250   0.00936
   2        2S          0.04136  -0.00707   0.76773  -0.20796  -0.04715
   3        2PX         0.00066   0.00131   0.02109  -0.13155   0.55334
   4        2PY         0.00014   0.00191  -0.00319  -0.12061   0.26902
   5        2PZ        -0.00021  -0.00539  -0.00038   0.30070   0.22172
   6 2   H  1S         -0.00804  -0.00038   0.09887  -0.07708  -0.26283
   7 3   H  1S         -0.00748  -0.00045   0.08066  -0.06122  -0.12370
   8 4   H  1S         -0.00937  -0.00034   0.12056  -0.13495   0.33143
   9 5   C  1S          0.00060   0.98987  -0.07137  -0.20882  -0.01982
  10        2S         -0.00660   0.04998   0.15656   0.59649   0.05988
  11        2PX        -0.00131   0.00007   0.01964   0.01255   0.12724
  12        2PY        -0.00160  -0.00117   0.01948  -0.01664   0.05324
  13        2PZ         0.00483  -0.00013  -0.06955  -0.02993   0.06968
  14 6   H  1S          0.00069  -0.01127   0.02147   0.15731   0.04396
  15 7   H  1S          0.00065  -0.01108   0.01951   0.14580  -0.03983
  16 8   H  1S          0.00056  -0.00992   0.01956   0.14587   0.06947
                           6         7         8         9        10
                           O         O         O         O         V
     Eigenvalues --    -0.69950  -0.60895  -0.53544  -0.52533   0.04413
   1 1   N  1S         -0.00732  -0.03036   0.00032   0.00053  -0.15266
   2        2S          0.03571   0.14278   0.00194   0.00081   1.01047
   3        2PX        -0.32799  -0.08190  -0.10377  -0.16192  -0.11766
   4        2PY         0.54963  -0.21535  -0.13940   0.18418  -0.32248
   5        2PZ         0.14758   0.56184  -0.08834  -0.02385   0.53278
   6 2   H  1S         -0.25974  -0.09345   0.16303  -0.08572  -0.36251
   7 3   H  1S          0.33209  -0.10734  -0.00988   0.20381  -0.10123
   8 4   H  1S         -0.06585  -0.09247  -0.13131  -0.08484  -0.23328
   9 5   C  1S          0.00528   0.05491   0.00513   0.00503   0.09159
  10        2S         -0.01506  -0.15892  -0.01512  -0.02083  -0.48231
  11        2PX        -0.09204   0.13737   0.38217   0.45396  -0.18048
  12        2PY         0.17914   0.14815   0.39383  -0.37995  -0.37401
  13        2PZ         0.01294  -0.40484   0.23465  -0.00898   0.90715
  14 6   H  1S         -0.10323  -0.14047  -0.01111   0.43364  -0.09172
  15 7   H  1S          0.00766  -0.18200  -0.34801  -0.22748  -0.01825
  16 8   H  1S          0.06357  -0.17646   0.42287  -0.21462   0.01122
                          11        12        13        14        15
                           V         V         V         V         V
     Eigenvalues --     0.05364   0.07092   0.15578   0.21163   0.30344
   1 1   N  1S          0.10862   0.05933   0.05442  -0.03667   0.01749
   2        2S         -0.74944  -0.43885  -0.45117   0.28312  -0.14202
   3        2PX         0.41518  -0.11280  -0.81984   0.36808  -0.33686
   4        2PY        -0.56106   0.58241  -0.23439   0.39774  -0.00595
   5        2PZ         0.38946   0.69598   0.10339   0.11988  -0.07166
   6 2   H  1S          0.18316   1.15778  -0.12648   0.24609  -0.04424
   7 3   H  1S          1.17490  -0.24319  -0.19264  -0.08639  -0.09551
   8 4   H  1S          0.16524   0.14811   1.15486  -0.60691   0.31204
   9 5   C  1S          0.03884   0.03017   0.05964   0.08704  -0.02671
  10        2S         -0.22943  -0.17828  -0.36201  -0.54023   0.18220
  11        2PX         0.02132  -0.02677  -0.26585   0.01626   1.08095
  12        2PY        -0.10868   0.05311  -0.36926  -0.75660  -0.29526
  13        2PZ         0.07708   0.32953  -0.17270  -0.51233   0.14734
  14 6   H  1S         -0.07900   0.10226   0.11604  -0.23413  -1.02078
  15 7   H  1S          0.09659   0.07916  -0.27477   0.05514   0.84325
  16 8   H  1S          0.12940  -0.22362   0.58196   1.07348  -0.08527
                          16
                           V
     Eigenvalues --     0.35644
   1 1   N  1S          0.03096
   2        2S         -0.21084
   3        2PX         0.09602
   4        2PY         0.11846
   5        2PZ        -0.03575
   6 2   H  1S          0.14361
   7 3   H  1S          0.07682
   8 4   H  1S          0.00869
   9 5   C  1S         -0.20986
  10        2S          1.48031
  11        2PX        -0.27221
  12        2PY        -0.59265
  13        2PZ         0.15069
  14 6   H  1S         -0.90889
  15 7   H  1S         -1.08200
  16 8   H  1S         -0.22310
          Condensed to atoms (all electrons):
               1          2          3          4          5          6
     1  N    6.153260   0.333923   0.322180   0.348461   0.290013  -0.024900
     2  H    0.333923   0.389982  -0.020994  -0.022538  -0.023264  -0.002917
     3  H    0.322180  -0.020994   0.378106  -0.021519  -0.022514   0.002902
     4  H    0.348461  -0.022538  -0.021519   0.360020  -0.023478  -0.002768
     5  C    0.290013  -0.023264  -0.022514  -0.023478   4.759492   0.399667
     6  H   -0.024900  -0.002917   0.002902  -0.002768   0.399667   0.491642
     7  H   -0.019977  -0.003031  -0.003285   0.002693   0.402051  -0.020464
     8  H   -0.020155   0.002583  -0.002966  -0.002432   0.388232  -0.020141
               7          8
     1  N   -0.019977  -0.020155
     2  H   -0.003031   0.002583
     3  H   -0.003285  -0.002966
     4  H    0.002693  -0.002432
     5  C    0.402051   0.388232
     6  H   -0.020464  -0.020141
     7  H    0.458781  -0.017655
     8  H   -0.017655   0.573302
 Mulliken charges:
               1
     1  N   -0.382805
     2  H    0.346255
     3  H    0.368090
     4  H    0.361561
     5  C   -0.170199
     6  H    0.176980
     7  H    0.200886
     8  H    0.099232
 Sum of Mulliken charges =   1.00000
 Mulliken charges with hydrogens summed into heavy atoms:
               1
     1  N    0.693102
     5  C    0.306898
 Electronic spatial extent (au):  <R**2>=         680201.6919
 Charge=              1.0000 electrons
 Dipole moment (field-independent basis, Debye):
    X=            229.3264    Y=            410.9106    Z=            149.9951  Tot=            493.8994
 Quadrupole moment (field-independent basis, Debye-Ang):
   XX=          10938.7722   YY=          35142.8555   ZZ=           4674.1053
   XY=          19618.8484   XZ=           7161.1492   YZ=          12831.4031
 Traceless Quadrupole moment (field-independent basis, Debye-Ang):
   XX=          -5979.8054   YY=          18224.2778   ZZ=         -12244.4724
   XY=          19618.8484   XZ=           7161.1492   YZ=          12831.4031
 Octapole moment (field-independent basis, Debye-Ang**2):
  XXX=         521284.2889  YYY=        3004700.5017  ZZZ=         145319.8780  XYY=        1677901.4184
  XXY=         935820.2739  XXZ=         341562.3781  XZZ=         223144.2838  YZZ=         399831.5521
  YYZ=        1097340.9336  XYZ=         612608.6814
 Hexadecapole moment (field-independent basis, Debye-Ang**3):
 XXXX=       24818235.9084 YYYY=      256826846.8112 ZZZZ=        4506828.4020 XXXY=       44596853.6637
 XXXZ=       16275681.5890 YYYX=      143460957.0978 YYYZ=       93816739.0798 ZZZX=        6937346.3719
 ZZZY=       12430433.7848 XXYY=       80036787.4456 XXZZ=       10642495.2725 YYZZ=       34191842.8807
 XXYZ=       29219660.3171 YYXZ=       52390676.9241 ZZXY=       19088334.2465
 N-N= 4.744023343099D+01 E-N=-3.106349553871D+02  KE= 9.297928254581D+01
 Orbital energies and kinetic energies (alpha):
                                 1                 2
   1         O               -14.233649         21.622706
   2         O                -9.988369         15.564173
   3         O                -1.114936          1.748630
   4         O                -0.827479          1.434190
   5         O                -0.739999          1.248666
   6         O                -0.699502          1.230356
   7         O                -0.608948          1.395662
   8         O                -0.535438          1.101324
   9         O                -0.525327          1.143933
  10         V                 0.044134          3.075716
  11         V                 0.053642          2.310906
  12         V                 0.070919          2.323869
  13         V                 0.155783          2.367841
  14         V                 0.211628          2.404354
  15         V                 0.303438          2.346509
  16         V                 0.356444          2.731051
 Total kinetic energy from orbitals= 9.297928254581D+01
 No NMR shielding tensors so no spin-rotation constants.
 Leave Link  601 at Fri May 22 12:39:16 2026, MaxMem=   131072000 cpu:               0.1 elap:               0.2
 (Enter /afs/math/software/gaussian/g16.A03/g16/l602.exe)
 FitSet:  NAtFit=     8 NAtPot=     8 NAtFrz=     0 MDM=    12 TotChg=   1.00000
 Merz-Kollman atomic radii used.

 **********************************************************************

            Electrostatic Properties Using The SCF Density

 **********************************************************************

       Atomic Center    1 is at  47.900000 85.620000 31.120000
       Atomic Center    2 is at  47.700000 84.870000 30.470000
       Atomic Center    3 is at  47.200000 86.370000 30.900000
       Atomic Center    4 is at  48.770000 85.950000 31.060000
       Atomic Center    5 is at  47.570000 85.150000 32.470000
       Atomic Center    6 is at  48.200000 84.400000 32.670000
       Atomic Center    7 is at  46.630000 84.810000 32.500000
       Atomic Center    8 is at  47.705453 85.948457 33.182908
      Read-in Center  461 is at  46.950000 86.440000 34.370000
      Read-in Center  462 is at  48.860000 87.010000 33.340000
      Read-in Center  463 is at  49.520000 86.780000 32.620000
      Read-in Center  464 is at  49.140000 88.150000 34.210000
      Read-in Center  465 is at  49.290000 87.770000 35.130000
      Read-in Center  466 is at  50.380000 88.900000 33.760000
      Read-in Center  467 is at  50.570000 89.640000 34.390000
      Read-in Center  468 is at  51.160000 88.270000 33.740000
      Read-in Center  469 is at  50.180000 89.420000 32.500000
      Read-in Center  470 is at  50.950000 89.890000 32.220000
      Read-in Center  471 is at  47.950000 89.090000 34.220000
      Read-in Center  472 is at  47.700000 89.580000 33.380000
      Read-in Center  473 is at  47.290000 89.260000 35.250000
      Read-in Center  474 is at  46.539337 86.526189 34.826293
      Read-in Center  475 is at  47.360663 86.353811 33.913707
      Read-in Center  476 is at  49.406984 87.377971 33.275356
      Read-in Center  477 is at  48.313016 86.642029 33.404644
     452 points will be used for fitting atomic charges
 Fitting point charges to electrostatic potential
 Charges from ESP fit, RMS=   0.00168 RRMS=   0.00980:
 ESP charges:
               1
     1  N   -0.203639
     2  H    0.309101
     3  H    0.329395
     4  H    0.307989
     5  C    0.018104
     6  H    0.084754
     7  H    0.110855
     8  H    0.043442
 Sum of ESP charges =   1.00000
 ESP charges with hydrogens summed into heavy atoms:
               1
     1  N    0.742846
     5  C    0.257154
 Charge=   1.00000 Dipole=   229.3327   410.9114   149.9875 Tot=   493.9007
 -----------------------------------------------------------------

              Electrostatic Properties (Atomic Units)

 -----------------------------------------------------------------
    Center     Electric         -------- Electric Field --------
               Potential          X             Y             Z
 -----------------------------------------------------------------
    1 Atom    -17.578984     -0.023968     -0.010287      0.023129
    2 Atom     -0.654727     -0.006098     -0.063968     -0.056632
    3 Atom     -0.644816     -0.021761      0.035055     -0.011087
    4 Atom     -0.629540      0.190886      0.068203     -0.013743
    5 Atom    -14.217826     -0.001925     -0.003747      0.053274
    6 Atom     -0.838729      0.092389     -0.111781      0.051508
    7 Atom     -0.812893     -0.135118     -0.048483      0.020335
    8 Atom     -0.902961      0.009301      0.049049      0.061366
  461           0.160568     -0.011264      0.008541      0.026550
  462           0.182759      0.015786      0.017743      0.021206
  463           0.198853      0.022611      0.017359      0.025331
  464           0.124495      0.005212      0.009597      0.010624
  465           0.110625      0.004161      0.005813      0.009861
  466           0.105884      0.005782      0.007480      0.005789
  467           0.089300      0.003754      0.005488      0.004292
  468           0.104405      0.007212      0.005825      0.005571
  469           0.110967      0.006095      0.009993      0.003550
  470           0.096349      0.005329      0.007367      0.001835
  471           0.112793      0.000580      0.009648      0.007987
  472           0.114506     -0.000079      0.011302      0.006186
  473           0.095748     -0.000747      0.006229      0.006607
  474           0.135340     -0.006603      0.005063      0.016568
  475           0.222968     -0.043275      0.045767      0.097069
  476           0.160352      0.012383      0.013822      0.015864
  477           0.230490      0.057721      0.064299      0.038455
 -----------------------------------------------------------------
 Leave Link  602 at Fri May 22 12:39:16 2026, MaxMem=   131072000 cpu:               0.0 elap:               0.1
 (Enter /afs/math/software/gaussian/g16.A03/g16/l701.exe)
 ... and contract with generalized density number  0.
 Compute integral first derivatives.
 Leave Link  701 at Fri May 22 12:39:16 2026, MaxMem=   131072000 cpu:               0.1 elap:               0.2
 (Enter /afs/math/software/gaussian/g16.A03/g16/l702.exe)
 L702 exits ... SP integral derivatives will be done elsewhere.
 Leave Link  702 at Fri May 22 12:39:16 2026, MaxMem=   131072000 cpu:               0.0 elap:               0.0
 (Enter /afs/math/software/gaussian/g16.A03/g16/l703.exe)
 Integral derivatives from FoFJK, PRISM(SPDF).
 Compute integral first derivatives, UseDBF=F ICtDFT=           0.
 Calling FoFJK, ICntrl=      2527 FMM=F ISym2X=0 I1Cent= 0 IOpClX= 0 NMat=1 NMatS=1 NMatT=0.
 FoFJK:  IHMeth= 1 ICntrl=    2527 DoSepK=F KAlg= 0 I1Cent=           0 FoldK=F
 IRaf=         0 NMat=       1 IRICut=       1 DoRegI=T DoRafI=F ISym2E= 0 IDoP0=0 IntGTp=1.
 FoFCou: FMM=F IPFlag=           0 FMFlag=      100000 FMFlg1=         800
         NFxFlg=           0 DoJE=F BraDBF=F KetDBF=F FulRan=T
         wScrn=  0.000000 ICntrl=      2527 IOpCl=  0 I1Cent=           0 NGrid=           0
         NMat0=    1 NMatS0=      1 NMatT0=    0 NMatD0=    1 NMtDS0=    0 NMtDT0=    0
 Symmetry not used in FoFCou.
 Leave Link  703 at Fri May 22 12:39:17 2026, MaxMem=   131072000 cpu:               0.7 elap:               0.8
 (Enter /afs/math/software/gaussian/g16.A03/g16/l716.exe)
 Dipole        = 9.02239597D+01 1.61664656D+02 5.90126287D+01
 -------------------------------------------------------------------
 Center     Atomic                   Forces (Hartrees/Bohr)
 Number     Number              X              Y              Z
 -------------------------------------------------------------------
      1        7          -0.155630753   -0.011951005    0.008101308
      2        1           0.000704527   -0.038335311   -0.039902094
      3        1          -0.004328997    0.023178501   -0.008889754
      4        1           0.158864427    0.060693220   -0.020255176
      5        6           0.033218695    0.073598388    0.014517392
      6        1           0.071532284   -0.084851204    0.030111932
      7        1          -0.108554067   -0.031732225    0.004900154
      8        1          -0.006565637   -0.007019111   -0.008891699
 -------------------------------------------------------------------
 Cartesian Forces:  Max     0.158864427 RMS     0.061372892
 Force constants in Cartesian coordinates: 
                1             2             3             4             5 
      1  0.104986D+01
      2  0.104802D+00  0.872447D+00
      3  0.227246D-02  0.435362D-01  0.806139D+00
      4 -0.406466D-01 -0.533296D-01 -0.323673D-01  0.224038D+00
      5 -0.471059D-01 -0.212093D+00 -0.164810D+00  0.436557D-01  0.378467D+00
      6 -0.462291D-01 -0.195604D+00 -0.201174D+00  0.513955D-01  0.165307D+00
      7 -0.169033D+00  0.153222D+00 -0.390690D-01  0.790285D-01  0.145241D-01
      8  0.146330D+00 -0.186191D+00  0.545800D-01 -0.483219D-02  0.809574D-01
      9 -0.612778D-01  0.708698D-01 -0.417483D-01 -0.149662D-01  0.240292D-01
     10 -0.494103D+00 -0.159238D+00  0.387121D-01  0.787149D-01  0.135431D-01
     11 -0.161001D+00 -0.130179D+00  0.982515D-02 -0.652630D-02  0.483431D-01
     12  0.698973D-01  0.230505D-01 -0.520867D-01  0.212537D-01  0.204276D-01
     13 -0.838465D-01 -0.269938D-01  0.483035D-01  0.184419D-01 -0.139753D-02
     14 -0.269309D-01 -0.883447D-01  0.722513D-01  0.959374D-02  0.359779D-01
     15  0.484536D-01  0.695519D-01 -0.280147D+00 -0.191805D-02 -0.335800D-02
     16  0.425512D-01 -0.193376D-01 -0.760694D-02  0.226372D-01 -0.229050D-01
     17  0.272193D-02  0.233458D-01 -0.661904D-02  0.206704D-01 -0.265103D-02
     18 -0.132631D-01  0.339442D-02  0.429685D-01  0.357657D-01 -0.407566D-01
     19  0.368609D-01 -0.693984D-02 -0.467778D-02  0.212392D-01 -0.133961D-01
     20 -0.163419D-01  0.421135D-01 -0.521797D-02 -0.216884D-01  0.406837D-01
     21  0.219546D-02 -0.552013D-02  0.424687D-01 -0.539192D-01 -0.238334D-01
     22  0.157150D-01  0.781504D-02 -0.556710D-02 -0.460912D-01  0.130815D-01
     23 -0.247423D-02  0.362636D-01 -0.354622D-02  0.124567D-01 -0.123226D-01
     24 -0.204878D-02 -0.927922D-02  0.409413D-01 -0.524411D-02  0.229935D-01
                6             7             8             9            10 
      6  0.278765D+00
      7 -0.300097D-02  0.279844D+00
      8 -0.971328D-02 -0.139640D+00  0.329174D+00
      9  0.412587D-01  0.570129D-01 -0.977440D-02  0.157950D+00
     10 -0.850822D-02  0.470333D-01 -0.269492D-02  0.292924D-02  0.606475D+00
     11  0.850574D-02  0.407380D-01  0.729600D-01 -0.102435D-01  0.185556D+00
     12  0.480658D-01  0.200769D-01  0.525380D-02  0.444426D-01 -0.856638D-02
     13 -0.373563D-02  0.418017D-01  0.269387D-02 -0.130710D-01  0.374244D-01
     14 -0.108471D-01 -0.186783D-01  0.215304D-01  0.558748D-03 -0.660326D-02
     15  0.399686D-01 -0.682720D-02 -0.754274D-02  0.412971D-01 -0.368641D-02
     16  0.916281D-02  0.273221D-01 -0.164749D-01 -0.817842D-02  0.310478D-01
     17  0.184233D-01 -0.157130D-01  0.141497D-02 -0.383760D-01 -0.726795D-02
     18  0.604009D-01 -0.804537D-02 -0.397480D-01  0.578312D-02 -0.574140D-03
     19  0.543216D-02  0.310343D-01 -0.825962D-02 -0.129692D-02  0.331525D-01
     20  0.167401D-02 -0.106106D-01  0.435810D-01  0.486144D-02 -0.971843D-02
     21  0.543838D-01 -0.296609D-01 -0.135421D-01  0.467143D-01 -0.256843D-01
     22 -0.451654D-02  0.203314D-01  0.228780D-01  0.388482D-01  0.176169D-01
     23  0.222537D-01 -0.238414D-01 -0.606499D-02 -0.419252D-01 -0.135771D-01
     24  0.356928D-01  0.951364D-02  0.204867D-01  0.616645D-01  0.537805D-02
               11            12            13            14            15 
     11  0.203863D+00
     12  0.967121D-02  0.177769D+00
     13 -0.164032D-01  0.475527D-02  0.921210D+00
     14  0.421460D-01 -0.390907D-02 -0.497300D-02  0.849687D+00
     15 -0.456068D-02  0.452739D-01  0.950526D-02  0.558337D-02  0.763677D+00
     16 -0.111325D-01 -0.281213D-01 -0.186382D+00  0.185671D+00 -0.460900D-01
     17  0.417768D-01 -0.126952D-01  0.181712D+00 -0.249167D+00  0.631808D-01
     18  0.293546D-02  0.460642D-01 -0.651884D-01  0.785086D-01 -0.534411D-01
     19 -0.939319D-02 -0.237519D-01 -0.374429D+00 -0.112853D+00  0.176396D-01
     20  0.397597D-01 -0.176893D-01 -0.117522D+00 -0.980349D-01  0.162974D-02
     21 -0.185223D-01 -0.640440D-02  0.468031D-01  0.146656D-01 -0.338518D-01
     22 -0.218380D-01 -0.555436D-01 -0.168582D-01 -0.252259D-01 -0.170768D-01
     23  0.386929D-01 -0.241096D-01 -0.171163D-01 -0.156433D+00 -0.124484D+00
     24  0.238893D-02  0.542375D-01 -0.273721D-01 -0.156811D+00 -0.165415D+00
               16            17            18            19            20 
     16  0.296406D+00
     17 -0.173145D+00  0.389526D+00
     18  0.633868D-01 -0.201096D-01  0.168433D+00
     19  0.466015D-01 -0.919092D-03  0.355635D-02  0.485799D+00
     20  0.407404D-01  0.699770D-01 -0.954405D-02  0.136786D+00  0.173296D+00
     21  0.205236D-01  0.665825D-02  0.448031D-01  0.112023D-01  0.181772D-01
     22  0.771792D-01 -0.805998D-02 -0.156379D-01  0.771038D-01 -0.164478D-02
     23  0.165832D-01  0.831394D-01  0.253198D-01  0.149751D-01  0.459862D-01
     24 -0.307667D-02 -0.104624D-01  0.423501D-01 -0.810382D-02  0.610893D-02
               21            22            23            24 
     21  0.165783D+00
     22  0.285399D-01  0.212365D+00
     23  0.219169D-01  0.129941D-01  0.328101D+00
     24  0.434652D-01  0.309538D-01  0.124575D+00  0.244426D+00
 Leave Link  716 at Fri May 22 12:39:17 2026, MaxMem=   131072000 cpu:               0.0 elap:               0.1
 (Enter /afs/math/software/gaussian/g16.A03/g16/l103.exe)

 GradGradGradGradGradGradGradGradGradGradGradGradGradGradGradGradGradGrad
 Berny optimization.
 Search for a local minimum.
 Step number   1 out of a maximum of    2
 All quantities printed in internal units (Hartrees-Bohrs-Radians)
 Second derivative matrix not updated -- first step.
 ITU=  0
     Eigenvalues ---    0.01482   0.04762   0.05236   0.06425   0.09278
     Eigenvalues ---    0.10023   0.15821   0.16620   0.17743   0.18588
     Eigenvalues ---    0.24387   0.37469   0.64248   0.94432   1.06201
     Eigenvalues ---    1.14147   1.17482   1.42029
 Quadratic step=6.896D-01 exceeds max=3.000D-01 adjusted using Lamda=-2.834D-01.
 Angle between NR and scaled steps=  29.71 degrees.
 Angle between quadratic step and forces=  30.79 degrees.
 Linear search not attempted -- first point.
 Variable       Old X    -DE/DX   Delta X   Delta X   Delta X     New X
                                 (Linear)    (Quad)   (Total)
    X1       90.51788  -0.15563   0.00000  -0.05020  -0.05020  90.46768
    Y1      161.79835  -0.01195   0.00000   0.01519   0.01519 161.81354
    Z1       58.80828   0.00810   0.00000  -0.01794  -0.01794  58.79034
    X2       90.13994   0.00070   0.00000   0.00777   0.00777  90.14770
    Y2      160.38106  -0.03834   0.00000  -0.05491  -0.05491 160.32615
    Z2       57.57996  -0.03990   0.00000  -0.06000  -0.06000  57.51996
    X3       89.19507  -0.00433   0.00000  -0.00864  -0.00864  89.18643
    Y3      163.21565   0.02318   0.00000   0.06001   0.06001 163.27565
    Z3       58.39254  -0.00889   0.00000  -0.03345  -0.03345  58.35908
    X4       92.16194   0.15886   0.00000   0.15162   0.15162  92.31356
    Y4      162.42196   0.06069   0.00000   0.05968   0.05968 162.48164
    Z4       58.69489  -0.02026   0.00000  -0.03275  -0.03275  58.66214
    X5       89.89427   0.03322   0.00000   0.01329   0.01329  89.90756
    Y5      160.91018   0.07360   0.00000   0.00529   0.00529 160.91547
    Z5       61.35941   0.01452   0.00000   0.03474   0.03474  61.39415
    X6       91.08480   0.07153   0.00000   0.09931   0.09931  91.18411
    Y6      159.49288  -0.08485   0.00000  -0.10629  -0.10629 159.38660
    Z6       61.73735   0.03011   0.00000   0.07060   0.07060  61.80795
    X7       88.11793  -0.10855   0.00000  -0.13883  -0.13883  87.97909
    Y7      160.26767  -0.03173   0.00000  -0.02150  -0.02150 160.24617
    Z7       61.41610   0.00490   0.00000   0.02333   0.02333  61.43943
    X8       90.15024  -0.00657   0.00000  -0.01096  -0.01096  90.13928
    Y8      162.41904  -0.00702   0.00000   0.00987   0.00987 162.42891
    Z8       62.70661  -0.00889   0.00000  -0.00535  -0.00535  62.70125
         Item               Value     Threshold  Converged?
 Maximum Force            0.158864     0.000450     NO 
 RMS     Force            0.061373     0.000300     NO 
 Maximum Displacement     0.151616     0.001800     NO 
 RMS     Displacement     0.061322     0.001200     NO 
 Predicted change in Energy=-5.158301D-02
 GradGradGradGradGradGradGradGradGradGradGradGradGradGradGradGradGradGrad

 Leave Link  103 at Fri May 22 12:39:17 2026, MaxMem=   131072000 cpu:               0.0 elap:               0.1
 (Enter /afs/math/software/gaussian/g16.A03/g16/l9999.exe)

 Test job not archived.
 1\1\GINC-CLUSTER-X\Force\RBP86\STO-3G\C1H6N1(1+)\JANSEN\22-May-2026\0\
 \#P BP86/STO-3G nosymm gfinput gfprint force charge guess=huckel punch
 =derivatives iop(3/33=1,6/7=3) prop(field,read) pop=esp\\QM part of st
 ep 0\\1,1\N,47.9,85.62,31.12\H,47.7,84.87,30.47\H,47.2,86.37,30.9\H,48
 .77,85.95,31.06\C,47.57,85.15,32.47\H,48.2,84.4,32.67\H,46.63,84.81,32
 .5\H,47.705453,85.948457,33.182908\\Version=ES64L-G16RevA.03\HF=-95.76
 92757\RMSD=7.596e-09\RMSF=6.137e-02\Dipole=0.0218164,0.2831928,-1.0053
 622\Quadrupole=-4445.8387839,13549.303912,-9103.4651281,14586.1329709,
 5324.1389026,9539.8337319\PG=C01 [X(C1H6N1)]\\@


 We make a living by what we get,
 we make a life by what we give.
                   -- Sir Winston Churchill
 Job cpu time:       0 days  0 hours  0 minutes  3.6 seconds.
 Elapsed time:       0 days  0 hours  0 minutes  4.8 seconds.
 File lengths (MBytes):  RWF=     72 Int=      0 D2E=      0 Chk=      8 Scr=      8
 Normal termination of Gaussian 16 at Fri May 22 12:39:17 2026.
