 Entering Gaussian System, Link 0=g16
 Input=/home/jansea92/gmx2qmmm_portable/examples/opt/test.2.gjf
 Output=/home/jansea92/gmx2qmmm_portable/examples/opt/test.2.log
 Initial command:
 /trinity/shared/software/gaussian/g16_A03/g16/l1.exe "/home/jansea92/gmx2qmmm_portable/examples/opt/Gau-2468564.inp" -scrdir="/home/jansea92/gmx2qmmm_portable/examples/opt/"
 Entering Link 1 = /trinity/shared/software/gaussian/g16_A03/g16/l1.exe PID=   2468565.
  
 Copyright (c) 1988,1990,1992,1993,1995,1998,2003,2009,2016,
            Gaussian, Inc.  All Rights Reserved.
  
 This is part of the Gaussian(R) 16 program.  It is based on
 the Gaussian(R) 09 system (copyright 2009, Gaussian, Inc.),
 the Gaussian(R) 03 system (copyright 2003, Gaussian, Inc.),
 the Gaussian(R) 98 system (copyright 1998, Gaussian, Inc.),
 the Gaussian(R) 94 system (copyright 1995, Gaussian, Inc.),
 the Gaussian 92(TM) system (copyright 1992, Gaussian, Inc.),
 the Gaussian 90(TM) system (copyright 1990, Gaussian, Inc.),
 the Gaussian 88(TM) system (copyright 1988, Gaussian, Inc.),
 the Gaussian 86(TM) system (copyright 1986, Carnegie Mellon
 University), and the Gaussian 82(TM) system (copyright 1983,
 Carnegie Mellon University). Gaussian is a federally registered
 trademark of Gaussian, Inc.
  
 This software contains proprietary and confidential information,
 including trade secrets, belonging to Gaussian, Inc.
  
 This software is provided under written license and may be
 used, copied, transmitted, or stored only in accord with that
 written license.
  
 The following legend is applicable only to US Government
 contracts under FAR:
  
                    RESTRICTED RIGHTS LEGEND
  
 Use, reproduction and disclosure by the US Government is
 subject to restrictions as set forth in subparagraphs (a)
 and (c) of the Commercial Computer Software - Restricted
 Rights clause in FAR 52.227-19.
  
 Gaussian, Inc.
 340 Quinnipiac St., Bldg. 40, Wallingford CT 06492
  
  
 ---------------------------------------------------------------
 Warning -- This program may not be used in any manner that
 competes with the business of Gaussian, Inc. or will provide
 assistance to any competitor of Gaussian, Inc.  The licensee
 of this program is prohibited from giving any competitor of
 Gaussian, Inc. access to this program.  By using this program,
 the user acknowledges that Gaussian, Inc. is engaged in the
 business of creating and licensing software in the field of
 computational chemistry and represents and warrants to the
 licensee that it is not a competitor of Gaussian, Inc. and that
 it will not use this program in any manner prohibited above.
 ---------------------------------------------------------------
  

 Cite this work as:
 Gaussian 16, Revision A.03,
 M. J. Frisch, G. W. Trucks, H. B. Schlegel, G. E. Scuseria, 
 M. A. Robb, J. R. Cheeseman, G. Scalmani, V. Barone, 
 G. A. Petersson, H. Nakatsuji, X. Li, M. Caricato, A. V. Marenich, 
 J. Bloino, B. G. Janesko, R. Gomperts, B. Mennucci, H. P. Hratchian, 
 J. V. Ortiz, A. F. Izmaylov, J. L. Sonnenberg, D. Williams-Young, 
 F. Ding, F. Lipparini, F. Egidi, J. Goings, B. Peng, A. Petrone, 
 T. Henderson, D. Ranasinghe, V. G. Zakrzewski, J. Gao, N. Rega, 
 G. Zheng, W. Liang, M. Hada, M. Ehara, K. Toyota, R. Fukuda, 
 J. Hasegawa, M. Ishida, T. Nakajima, Y. Honda, O. Kitao, H. Nakai, 
 T. Vreven, K. Throssell, J. A. Montgomery, Jr., J. E. Peralta, 
 F. Ogliaro, M. J. Bearpark, J. J. Heyd, E. N. Brothers, K. N. Kudin, 
 V. N. Staroverov, T. A. Keith, R. Kobayashi, J. Normand, 
 K. Raghavachari, A. P. Rendell, J. C. Burant, S. S. Iyengar, 
 J. Tomasi, M. Cossi, J. M. Millam, M. Klene, C. Adamo, R. Cammi, 
 J. W. Ochterski, R. L. Martin, K. Morokuma, O. Farkas, 
 J. B. Foresman, and D. J. Fox, Gaussian, Inc., Wallingford CT, 2016.
 
 ******************************************
 Gaussian 16:  ES64L-G16RevA.03 25-Dec-2016
                 4-Apr-2026 
 ******************************************
 %NPROCSHARED=1
 Will use up to    1 processors via shared memory.
 %MEM=1000MB
 %CHK=test.2.chk
 %OLDCHK=test.1.chk
 Copying data from "test.1.chk" to current chk file "test.2.chk"
 IOpt=  2 FromEx=T IUOpen= 4 IOptOp= 5 NList=   0 IFRang= 0 IUIn= 4 IUOut= 2.
 ----------------------------------------------------------------------
 #P BP86/STO-3G guess=read nosymm gfinput gfprint force charge guess=hu
 ckel punch=derivatives iop(3/33=1,6/7=3) prop(field,read) pop=esp
 ----------------------------------------------------------------------
 1/10=7,18=10,28=-2,30=1,38=1,125=101/1,3;
 2/12=2,15=1,17=6,18=5,29=2,40=1/2;
 3/6=3,11=2,24=110,25=1,30=1,33=1,71=1,74=404,116=-2/1,2,3;
 4/5=1,11=4/1;
 5/5=2,38=6/2;
 6/7=3,8=2,9=2,10=2,14=2,15=9,28=1/1,2;
 7/7=1,16=-2,29=1,30=1/1,2,3,16;
 1/10=7,18=10,28=-2,30=1/3;
 99/10=4,12=1/99;
 Leave Link    1 at Sat Apr  4 18:56:48 2026, MaxMem=   131072000 cpu:               0.1 elap:               0.1
 (Enter /trinity/shared/software/gaussian/g16_A03/g16/l101.exe)
 -----------------
 QM part of step 2
 -----------------
 Symbolic Z-matrix:
 Charge =  1 Multiplicity = 1
 N                     47.83     85.62     31.12 
 H                     47.7      84.87     30.47 
 H                     47.2      86.37     30.9 
 H                     48.77     85.95     31.06 
 C                     47.57     85.15     32.47 
 H                     48.2      84.4      32.67 
 H                     46.63     84.81     32.5 
 H                     47.70545   85.94846   33.18291 
 
 ITRead=  0  0  0  0  0  0  0  0
 MicOpt= -1 -1 -1 -1 -1 -1 -1 -1
 NAtoms=      8 NQM=        8 NQMF=       0 NMMI=      0 NMMIF=      0
                NMic=       0 NMicF=      0.
                    Isotopes and Nuclear Properties:
 (Nuclear quadrupole moments (NQMom) in fm**2, nuclear magnetic moments (NMagM)
  in nuclear magnetons)

  Atom         1           2           3           4           5           6           7           8
 IAtWgt=          14           1           1           1          12           1           1           1
 AtmWgt=  14.0030740   1.0078250   1.0078250   1.0078250  12.0000000   1.0078250   1.0078250   1.0078250
 NucSpn=           2           1           1           1           0           1           1           1
 AtZEff=  -0.0000000  -0.0000000  -0.0000000  -0.0000000  -0.0000000  -0.0000000  -0.0000000  -0.0000000
 NQMom=    2.0440000   0.0000000   0.0000000   0.0000000   0.0000000   0.0000000   0.0000000   0.0000000
 NMagM=    0.4037610   2.7928460   2.7928460   2.7928460   0.0000000   2.7928460   2.7928460   2.7928460
 AtZNuc=   7.0000000   1.0000000   1.0000000   1.0000000   6.0000000   1.0000000   1.0000000   1.0000000
 Background charge distribution read from input stream:
 Point Charges:
 XYZ=   46.9500   86.4400   34.3700 Q=   -0.2861 A=    0.0000 R=    0.0000 C=    0.0000
 XYZ=   48.8600   87.0100   33.3400 Q=   -0.0960 A=    0.0000 R=    0.0000 C=    0.0000
 XYZ=   49.5200   86.7800   32.6200 Q=    0.2681 A=    0.0000 R=    0.0000 C=    0.0000
 XYZ=   49.1400   88.1500   34.2100 Q=   -0.2722 A=    0.0000 R=    0.0000 C=    0.0000
 XYZ=   49.2900   87.7700   35.1300 Q=    0.1304 A=    0.0000 R=    0.0000 C=    0.0000
 XYZ=   50.3800   88.9000   33.7600 Q=    0.1123 A=    0.0000 R=    0.0000 C=    0.0000
 XYZ=   50.5700   89.6400   34.3900 Q=    0.0813 A=    0.0000 R=    0.0000 C=    0.0000
 XYZ=   51.1600   88.2700   33.7400 Q=    0.0813 A=    0.0000 R=    0.0000 C=    0.0000
 XYZ=   50.1800   89.4200   32.5000 Q=   -0.6514 A=    0.0000 R=    0.0000 C=    0.0000
 XYZ=   50.9500   89.8900   32.2200 Q=    0.4474 A=    0.0000 R=    0.0000 C=    0.0000
 XYZ=   47.9500   89.0900   34.2200 Q=    0.8113 A=    0.0000 R=    0.0000 C=    0.0000
 XYZ=   47.7000   89.5800   33.3800 Q=   -0.8132 A=    0.0000 R=    0.0000 C=    0.0000
 XYZ=   47.2900   89.2600   35.2500 Q=   -0.8132 A=    0.0000 R=    0.0000 C=    0.0000
 XYZ=   46.5393   86.5262   34.8263 Q=   -0.2768 A=    0.0000 R=    0.0000 C=    0.0000
 XYZ=   47.3607   86.3538   33.9137 Q=    0.2768 A=    0.0000 R=    0.0000 C=    0.0000
 XYZ=   49.4070   87.3780   33.2754 Q=   -0.2849 A=    0.0000 R=    0.0000 C=    0.0000
 XYZ=   48.3130   86.6420   33.4046 Q=    0.2849 A=    0.0000 R=    0.0000 C=    0.0000
 Pt Chg Charge=             -1.0000 electrons
 Pt Chg Dipole moment (Debye):
    X=           -221.8478    Y=           -429.2248    Z=           -166.7072  Tot=            511.1180
 Pt Chg Quadrupole moment (Debye-Ang):
   XX=         -10224.1550   YY=         -38355.1482   ZZ=          -5789.4441
   XY=         -19831.5967   XZ=          -7703.0235   YZ=         -14889.7887
 Pt Chg Traceless Quadrupole moment (Debye-Ang):
   XX=           7898.7608   YY=         -20232.2324   ZZ=          12333.4717
   XY=         -19831.5967   XZ=          -7703.0235   YZ=         -14889.7887
 Pt Chg Octapole moment (Debye-Ang**2):
  XXX=        -470006.6789  YYY=       -3427270.7862  ZZZ=        -201178.8845  XYY=       -1772709.0047
  XXY=        -914291.6814  XXZ=        -355188.7824  XZZ=        -267615.6403  YZZ=        -516845.5645
  YYZ=       -1329892.4688  XYZ=        -688236.8505
 Pt Chg Hexadecapole moment (Debye-Ang**3):
 XXXX=      -21543359.9673 YYYY=     -306238402.5937 ZZZZ=       -6995094.3839 XXXY=      -42045856.9890
 XXXZ=      -16338527.1937 YYYX=     -158451125.4430 YYYZ=     -118778766.0654 ZZZX=       -9302760.2956
 ZZZY=      -17951702.9548 XXYY=      -81754294.6404 XXZZ=      -12345739.2164 YYZZ=      -46140970.5216
 XXYZ=      -31745618.7943 YYXZ=      -61489526.0662 ZZXY=      -23898583.9974
 Leave Link  101 at Sat Apr  4 18:56:48 2026, MaxMem=   131072000 cpu:               0.1 elap:               0.1
 (Enter /trinity/shared/software/gaussian/g16_A03/g16/l103.exe)

 GradGradGradGradGradGradGradGradGradGradGradGradGradGradGradGradGradGrad
 Berny optimization.
 Initialization pass.
 Trust Radius=3.00D-01 FncErr=1.00D-07 GrdErr=1.00D-07 EigMax=2.50D+02 EigMin=1.00D-04
 Number of steps in this run=      2 maximum allowed number of steps=      2.
 GradGradGradGradGradGradGradGradGradGradGradGradGradGradGradGradGradGrad

 Leave Link  103 at Sat Apr  4 18:56:48 2026, MaxMem=   131072000 cpu:               0.0 elap:               0.0
 (Enter /trinity/shared/software/gaussian/g16_A03/g16/l202.exe)
 ---------------------------------------------------------------------------------------------------
                            Z-MATRIX (ANGSTROMS AND DEGREES)
   CD    Cent   Atom    N1       Length/X        N2       Alpha/Y        N3        Beta/Z          J
 ---------------------------------------------------------------------------------------------------
      1      1  N        0  47.830000         85.620000         31.120000
      2      2  H        0  47.700000         84.870000         30.470000
      3      3  H        0  47.200000         86.370000         30.900000
      4      4  H        0  48.770000         85.950000         31.060000
      5      5  C        0  47.570000         85.150000         32.470000
      6      6  H        0  48.200000         84.400000         32.670000
      7      7  H        0  46.630000         84.810000         32.500000
      8      8  H        0  47.705453         85.948457         33.182908
 ---------------------------------------------------------------------------------------------------
                         Z-Matrix orientation:                         
 ---------------------------------------------------------------------
 Center     Atomic      Atomic             Coordinates (Angstroms)
 Number     Number       Type             X           Y           Z
 ---------------------------------------------------------------------
      1          7           0       47.830000   85.620000   31.120000
      2          1           0       47.700000   84.870000   30.470000
      3          1           0       47.200000   86.370000   30.900000
      4          1           0       48.770000   85.950000   31.060000
      5          6           0       47.570000   85.150000   32.470000
      6          1           0       48.200000   84.400000   32.670000
      7          1           0       46.630000   84.810000   32.500000
      8          1           0       47.705453   85.948457   33.182908
 ---------------------------------------------------------------------
                    Distance matrix (angstroms):
                    1          2          3          4          5
     1  N    0.000000
     2  H    1.000950   0.000000
     3  H    1.003892   1.638566   0.000000
     4  H    0.998048   1.630767   1.633065   0.000000
     5  C    1.452928   2.023685   2.022424   2.016953   0.000000
     6  H    2.006938   2.304539   2.830866   2.306404   0.999700
     7  H    2.000125   2.295517   2.306187   2.820071   1.000050
     8  H    2.092603   2.919412   2.375889   2.374869   1.078943
                    6          7          8
     6  H    0.000000
     7  H    1.631533   0.000000
     8  H    1.704515   1.708522   0.000000
 Symmetry turned off by external request.
 Stoichiometry    CH6N(1+)
 Framework group  C1[X(CH6N)]
 Deg. of freedom    18
 Full point group                 C1      NOp   1
 Rotational constants (GHZ):          91.2460483          21.8327238          21.6749032
 Leave Link  202 at Sat Apr  4 18:56:48 2026, MaxMem=   131072000 cpu:               0.0 elap:               0.0
 (Enter /trinity/shared/software/gaussian/g16_A03/g16/l301.exe)
 Standard basis: STO-3G (5D, 7F)
                         Coordinates in L301:                         
 ---------------------------------------------------------------------
 Center     Atomic      Atomic             Coordinates (Angstroms)
 Number     Number       Type             X           Y           Z
 ---------------------------------------------------------------------
      1          7           0       47.830000   85.620000   31.120000
      2          1           0       47.700000   84.870000   30.470000
      3          1           0       47.200000   86.370000   30.900000
      4          1           0       48.770000   85.950000   31.060000
      5          6           0       47.570000   85.150000   32.470000
      6          1           0       48.200000   84.400000   32.670000
      7          1           0       46.630000   84.810000   32.500000
      8          1           0       47.705453   85.948457   33.182908
 ---------------------------------------------------------------------
 FixB: optimizing general contractions.
 Ernie: Thresh=  0.10000D-02 Tol=  0.10000D-05 Strict=F.
 IA=     1 ShT= 0 ShC= 0 NL=   1 NS=   0.
 IA=     1 L=0 SC=0 ISt=    0 NBk=    0 NP=    0 IndPr=    0.
 IA=     1 ShT= 1 ShC= 0 NL=   1 NS=   0.
 IA=     1 L=1 SC=0 ISt=    0 NBk=    0 NP=    0 IndPr=    0.
 IA=     2 ShT= 0 ShC= 0 NL=   1 NS=   0.
 IA=     2 L=0 SC=0 ISt=    0 NBk=    0 NP=    0 IndPr=    0.
 IA=     3 ShT= 0 ShC= 0 NL=   1 NS=   0.
 IA=     3 L=0 SC=0 ISt=    0 NBk=    0 NP=    0 IndPr=    0.
 IA=     4 ShT= 0 ShC= 0 NL=   1 NS=   0.
 IA=     4 L=0 SC=0 ISt=    0 NBk=    0 NP=    0 IndPr=    0.
 IA=     5 ShT= 0 ShC= 0 NL=   1 NS=   0.
 IA=     5 L=0 SC=0 ISt=    0 NBk=    0 NP=    0 IndPr=    0.
 IA=     5 ShT= 1 ShC= 0 NL=   1 NS=   0.
 IA=     5 L=1 SC=0 ISt=    0 NBk=    0 NP=    0 IndPr=    0.
 IA=     6 ShT= 0 ShC= 0 NL=   1 NS=   0.
 IA=     6 L=0 SC=0 ISt=    0 NBk=    0 NP=    0 IndPr=    0.
 IA=     7 ShT= 0 ShC= 0 NL=   1 NS=   0.
 IA=     7 L=0 SC=0 ISt=    0 NBk=    0 NP=    0 IndPr=    0.
 IA=     8 ShT= 0 ShC= 0 NL=   1 NS=   0.
 IA=     8 L=0 SC=0 ISt=    0 NBk=    0 NP=    0 IndPr=    0.
 AO basis set in the form of general basis input (Overlap normalization):
      1 0
 S   3 1.00       0.000000000000
      0.9910616896D+02  0.1543289673D+00
      0.1805231239D+02  0.5353281423D+00
      0.4885660238D+01  0.4446345422D+00
 SP   3 1.00       0.000000000000
      0.3780455879D+01 -0.9996722919D-01  0.1559162750D+00
      0.8784966449D+00  0.3995128261D+00  0.6076837186D+00
      0.2857143744D+00  0.7001154689D+00  0.3919573931D+00
 ****
      2 0
 S   3 1.00       0.000000000000
      0.3425250914D+01  0.1543289673D+00
      0.6239137298D+00  0.5353281423D+00
      0.1688554040D+00  0.4446345422D+00
 ****
      3 0
 S   3 1.00       0.000000000000
      0.3425250914D+01  0.1543289673D+00
      0.6239137298D+00  0.5353281423D+00
      0.1688554040D+00  0.4446345422D+00
 ****
      4 0
 S   3 1.00       0.000000000000
      0.3425250914D+01  0.1543289673D+00
      0.6239137298D+00  0.5353281423D+00
      0.1688554040D+00  0.4446345422D+00
 ****
      5 0
 S   3 1.00       0.000000000000
      0.7161683735D+02  0.1543289673D+00
      0.1304509632D+02  0.5353281423D+00
      0.3530512160D+01  0.4446345422D+00
 SP   3 1.00       0.000000000000
      0.2941249355D+01 -0.9996722919D-01  0.1559162750D+00
      0.6834830964D+00  0.3995128261D+00  0.6076837186D+00
      0.2222899159D+00  0.7001154689D+00  0.3919573931D+00
 ****
      6 0
 S   3 1.00       0.000000000000
      0.3425250914D+01  0.1543289673D+00
      0.6239137298D+00  0.5353281423D+00
      0.1688554040D+00  0.4446345422D+00
 ****
      7 0
 S   3 1.00       0.000000000000
      0.3425250914D+01  0.1543289673D+00
      0.6239137298D+00  0.5353281423D+00
      0.1688554040D+00  0.4446345422D+00
 ****
      8 0
 S   3 1.00       0.000000000000
      0.3425250914D+01  0.1543289673D+00
      0.6239137298D+00  0.5353281423D+00
      0.1688554040D+00  0.4446345422D+00
 ****

 AO basis set (Overlap normalization):
 Atom N1       Shell     1 S   3     bf    1 -     1         90.385600537947        161.798350785261         58.808276996465
      0.9910616896D+02  0.1543289673D+00
      0.1805231239D+02  0.5353281423D+00
      0.4885660238D+01  0.4446345422D+00
 Atom N1       Shell     2 SP   3    bf    2 -     5         90.385600537947        161.798350785261         58.808276996465
      0.3780455879D+01 -0.9996722919D-01  0.1559162750D+00
      0.8784966449D+00  0.3995128261D+00  0.6076837186D+00
      0.2857143744D+00  0.7001154689D+00  0.3919573931D+00
 Atom H2       Shell     3 S   3     bf    6 -     6         90.139936141753        160.381056191837         57.579955015497
      0.3425250914D+01  0.1543289673D+00
      0.6239137298D+00  0.5353281423D+00
      0.1688554040D+00  0.4446345422D+00
 Atom H3       Shell     4 S   3     bf    7 -     7         89.195073079471        163.215645378684         58.392537249060
      0.3425250914D+01  0.1543289673D+00
      0.6239137298D+00  0.5353281423D+00
      0.1688554040D+00  0.4446345422D+00
 Atom H4       Shell     5 S   3     bf    8 -     8         92.161943095038        162.421960406367         58.694893428991
      0.3425250914D+01  0.1543289673D+00
      0.6239137298D+00  0.5353281423D+00
      0.1688554040D+00  0.4446345422D+00
 Atom C5       Shell     6 S   3     bf    9 -     9         89.894271745560        160.910179506715         61.359407264628
      0.7161683735D+02  0.1543289673D+00
      0.1304509632D+02  0.5353281423D+00
      0.3530512160D+01  0.4446345422D+00
 Atom C5       Shell     7 SP   3    bf   10 -    13         89.894271745560        160.910179506715         61.359407264628
      0.2941249355D+01 -0.9996722919D-01  0.1559162750D+00
      0.6834830964D+00  0.3995128261D+00  0.6076837186D+00
      0.2222899159D+00  0.7001154689D+00  0.3919573931D+00
 Atom H6       Shell     8 S   3     bf   14 -    14         91.084799204036        159.492884913291         61.737352489541
      0.3425250914D+01  0.1543289673D+00
      0.6239137298D+00  0.5353281423D+00
      0.1688554040D+00  0.4446345422D+00
 Atom H7       Shell     9 S   3     bf   15 -    15         88.117929188469        160.267672624363         61.416099048365
      0.3425250914D+01  0.1543289673D+00
      0.6239137298D+00  0.5353281423D+00
      0.1688554040D+00  0.4446345422D+00
 Atom H8       Shell    10 S   3     bf   16 -    16         90.150240818311        162.419044558957         62.706608136639
      0.3425250914D+01  0.1543289673D+00
      0.6239137298D+00  0.5353281423D+00
      0.1688554040D+00  0.4446345422D+00
 LdAtmC:  AtmChg=     7.000000     1.000000     1.000000     1.000000     6.000000
 LdAtmC:  AtmChg=     1.000000     1.000000     1.000000
 AtZEff=     -4.5500000     -1.0000000     -1.0000000     -1.0000000     -3.6000000
 AtZEff=     -1.0000000     -1.0000000     -1.0000000
    16 basis functions,    48 primitive gaussians,    16 cartesian basis functions
     9 alpha electrons        9 beta electrons
       nuclear repulsion energy        49.7101682438 Hartrees.
 IS=     1 IAt=     1 ISR=     1 T=0 IP=      1 IndIP=      1 IndIPD=      0 C=  3.454881D+00  0.000000D+00                             NZ=T
 IS=     1 IAt=     1 ISR=     1 T=0 IP=      2 IndIP=      2 IndIPD=      1 C=  3.341410D+00  0.000000D+00                             NZ=T
 IS=     1 IAt=     1 ISR=     1 T=0 IP=      3 IndIP=      3 IndIPD=      2 C=  1.041372D+00  0.000000D+00                             NZ=T
 IS=     2 IAt=     1 ISR=     2 T=1 IP=      1 IndIP=      4 IndIPD=      0 C= -1.931639D-01  1.171553D+00                             NZ=T
 IS=     2 IAt=     1 ISR=     2 T=1 IP=      2 IndIP=      5 IndIPD=      1 C=  2.583723D-01  7.367037D-01                             NZ=T
 IS=     2 IAt=     1 ISR=     2 T=1 IP=      3 IndIP=      6 IndIPD=      2 C=  1.949974D-01  1.167062D-01                             NZ=T
 IS=     3 IAt=     2 ISR=     1 T=0 IP=      1 IndIP=      7 IndIPD=      0 C=  2.769344D-01  0.000000D+00                             NZ=T
 IS=     3 IAt=     2 ISR=     1 T=0 IP=      2 IndIP=      8 IndIPD=      1 C=  2.678389D-01  0.000000D+00                             NZ=T
 IS=     3 IAt=     2 ISR=     1 T=0 IP=      3 IndIP=      9 IndIPD=      2 C=  8.347367D-02  0.000000D+00                             NZ=T
 IS=     4 IAt=     3 ISR=     1 T=0 IP=      1 IndIP=     10 IndIPD=      0 C=  2.769344D-01  0.000000D+00                             NZ=T
 IS=     4 IAt=     3 ISR=     1 T=0 IP=      2 IndIP=     11 IndIPD=      1 C=  2.678389D-01  0.000000D+00                             NZ=T
 IS=     4 IAt=     3 ISR=     1 T=0 IP=      3 IndIP=     12 IndIPD=      2 C=  8.347367D-02  0.000000D+00                             NZ=T
 IS=     5 IAt=     4 ISR=     1 T=0 IP=      1 IndIP=     13 IndIPD=      0 C=  2.769344D-01  0.000000D+00                             NZ=T
 IS=     5 IAt=     4 ISR=     1 T=0 IP=      2 IndIP=     14 IndIPD=      1 C=  2.678389D-01  0.000000D+00                             NZ=T
 IS=     5 IAt=     4 ISR=     1 T=0 IP=      3 IndIP=     15 IndIPD=      2 C=  8.347367D-02  0.000000D+00                             NZ=T
 IS=     6 IAt=     5 ISR=     1 T=0 IP=      1 IndIP=     16 IndIPD=      0 C=  2.707814D+00  0.000000D+00                             NZ=T
 IS=     6 IAt=     5 ISR=     1 T=0 IP=      2 IndIP=     17 IndIPD=      1 C=  2.618880D+00  0.000000D+00                             NZ=T
 IS=     6 IAt=     5 ISR=     1 T=0 IP=      3 IndIP=     18 IndIPD=      2 C=  8.161906D-01  0.000000D+00                             NZ=T
 IS=     7 IAt=     5 ISR=     2 T=1 IP=      1 IndIP=     19 IndIPD=      0 C= -1.600172D-01  8.560445D-01                             NZ=T
 IS=     7 IAt=     5 ISR=     2 T=1 IP=      2 IndIP=     20 IndIPD=      1 C=  2.140359D-01  5.383038D-01                             NZ=T
 IS=     7 IAt=     5 ISR=     2 T=1 IP=      3 IndIP=     21 IndIPD=      2 C=  1.615361D-01  8.527636D-02                             NZ=T
 IS=     8 IAt=     6 ISR=     1 T=0 IP=      1 IndIP=     22 IndIPD=      0 C=  2.769344D-01  0.000000D+00                             NZ=T
 IS=     8 IAt=     6 ISR=     1 T=0 IP=      2 IndIP=     23 IndIPD=      1 C=  2.678389D-01  0.000000D+00                             NZ=T
 IS=     8 IAt=     6 ISR=     1 T=0 IP=      3 IndIP=     24 IndIPD=      2 C=  8.347367D-02  0.000000D+00                             NZ=T
 IS=     9 IAt=     7 ISR=     1 T=0 IP=      1 IndIP=     25 IndIPD=      0 C=  2.769344D-01  0.000000D+00                             NZ=T
 IS=     9 IAt=     7 ISR=     1 T=0 IP=      2 IndIP=     26 IndIPD=      1 C=  2.678389D-01  0.000000D+00                             NZ=T
 IS=     9 IAt=     7 ISR=     1 T=0 IP=      3 IndIP=     27 IndIPD=      2 C=  8.347367D-02  0.000000D+00                             NZ=T
 IS=    10 IAt=     8 ISR=     1 T=0 IP=      1 IndIP=     28 IndIPD=      0 C=  2.769344D-01  0.000000D+00                             NZ=T
 IS=    10 IAt=     8 ISR=     1 T=0 IP=      2 IndIP=     29 IndIPD=      1 C=  2.678389D-01  0.000000D+00                             NZ=T
 IS=    10 IAt=     8 ISR=     1 T=0 IP=      3 IndIP=     30 IndIPD=      2 C=  8.347367D-02  0.000000D+00                             NZ=T
 IExCor=  404 DFT=T Ex=B Corr=P86 ExCW=0 ScaHFX=  0.000000
 ScaDFX=  1.000000  1.000000  1.000000  1.000000 ScalE2=  1.000000  1.000000
 IRadAn=      5 IRanWt=     -1 IRanGd=            0 ICorTp=0 IEmpDi=  4
 NAtoms=    8 NActive=    8 NUniq=    8 SFac= 1.00D+00 NAtFMM=   60 NAOKFM=F Big=F
 Integral buffers will be    131072 words long.
 Raffenetti 2 integral format.
 Two-electron integral symmetry is turned off.
 Background charge distribution read from rwf.
 PtFMM for NChg=        25 BoxLen=    40.00 Levels= 0 LMax=20 SMax=    10.4 ICnFMM=     1:
 Self energy of the charges =        -0.6947009102 a.u.
 MM   energy of the charges =         0.0000000000 a.u.
 Nuclei-charges interaction =        -1.4617430530 a.u.
 Nuclear repulsion after external point charges =       47.5537242806 Hartrees.
 Leave Link  301 at Sat Apr  4 18:56:48 2026, MaxMem=   131072000 cpu:               0.1 elap:               0.1
 (Enter /trinity/shared/software/gaussian/g16_A03/g16/l302.exe)
 NPDir=0 NMtPBC=     1 NCelOv=     1 NCel=       1 NClECP=     1 NCelD=      1
         NCelK=      1 NCelE2=     1 NClLst=     1 CellRange=     0.0.
 One-electron integrals computed using PRISM.
 Entering OneElI...
 Calculate overlap and kinetic energy integrals
    NBasis =  16  MinDer = 0  MaxDer = 0
 Requested accuracy = 0.1000D-12
 PrmmSu-InSpLW:  IPartL=    0 NPrtUS=    1 NPrtUL=    1 DoSpLW=F IThBeg=    0 IThEnd=    0 NThAct=    1.
 PrsmSu:  NPrtUS=   1 ThrOK=F IAlg=1 NPAlg=1 LenDen=           0 ISkipM=0 DoSpLW=F IThBeg=    0 IThEnd=    0.
 Prism:   IPart=     0 DynPar=F LinDyn=F Incr=           1.
 PRISM was handed   131062193 working-precision words and    55 shell-pairs
 IPart=  0 NShTot=          55 NBatch=           5 AvBLen=        11.0
 PrSmSu:  NxtVal=              2.
 *** Overlap *** 
                1             2             3             4             5 
      1  0.100000D+01
      2  0.235038D+00  0.100000D+01
      3  0.000000D+00  0.000000D+00  0.100000D+01
      4  0.000000D+00  0.000000D+00  0.000000D+00  0.100000D+01
      5  0.000000D+00  0.000000D+00  0.000000D+00  0.000000D+00  0.100000D+01
      6  0.599594D-01  0.501801D+00 -0.575968D-01 -0.332289D+00 -0.287984D+00
      7  0.595442D-01  0.499958D+00 -0.277679D+00  0.330570D+00 -0.969673D-01
      8  0.603715D-01  0.503620D+00  0.418601D+00  0.146956D+00 -0.267192D-01
      9  0.000000D+00  0.246580D-01 -0.753041D-02 -0.136127D-01  0.391002D-01
     10  0.256705D-01  0.294453D+00 -0.551737D-01 -0.997371D-01  0.286479D+00
     11  0.764163D-02  0.636198D-01  0.145891D+00 -0.272701D-01  0.783289D-01
     12  0.138137D-01  0.115005D+00 -0.272701D-01  0.111681D+00  0.141595D+00
     13 -0.396777D-01 -0.330334D+00  0.783289D-01  0.141595D+00 -0.245731D+00
     14  0.606922D-02  0.997915D-01  0.219186D-01 -0.722722D-01  0.918212D-01
     15  0.616952D-02  0.101095D+00 -0.721459D-01 -0.486985D-01  0.829678D-01
     16  0.492041D-02  0.845866D-01 -0.611880D-02  0.161366D-01  0.101348D+00
                6             7             8             9            10 
      6  0.100000D+01
      7  0.209761D+00  0.100000D+01
      8  0.212207D+00  0.211484D+00  0.100000D+01
      9  0.751571D-02  0.753857D-02  0.763849D-02  0.100000D+01
     10  0.123224D+00  0.123497D+00  0.124685D+00  0.248362D+00  0.100000D+01
     11  0.989469D-02 -0.282331D-01  0.925763D-01  0.000000D+00  0.000000D+00
     12 -0.213116D-01  0.930929D-01  0.617176D-01  0.000000D+00  0.000000D+00
     13 -0.152226D+00 -0.119800D+00 -0.108777D+00  0.000000D+00  0.000000D+00
     14  0.708009D-01  0.259310D-01  0.705658D-01  0.768750D-01  0.543793D+00
     15  0.719471D-01  0.705931D-01  0.265058D-01  0.768125D-01  0.543584D+00
     16  0.216185D-01  0.622703D-01  0.623859D-01  0.639042D-01  0.497134D+00
               11            12            13            14            15 
     11  0.100000D+01
     12  0.000000D+00  0.100000D+01
     13  0.000000D+00  0.000000D+00  0.100000D+01
     14  0.312643D+00 -0.372194D+00  0.992519D-01  0.100000D+01
     15 -0.466224D+00 -0.168634D+00  0.148795D-01  0.211965D+00  0.100000D+01
     16  0.591358D-01  0.348588D+00  0.311240D+00  0.189987D+00  0.188837D+00
               16 
     16  0.100000D+01
 *** Kinetic Energy *** 
                1             2             3             4             5 
      1  0.219908D+02
      2 -0.128416D+00  0.606994D+00
      3  0.000000D+00  0.000000D+00  0.189936D+01
      4  0.000000D+00  0.000000D+00  0.000000D+00  0.189936D+01
      5  0.000000D+00  0.000000D+00  0.000000D+00  0.000000D+00  0.189936D+01
      6 -0.551838D-02  0.127473D+00 -0.379143D-01 -0.218736D+00 -0.189571D+00
      7 -0.570024D-02  0.126255D+00 -0.181878D+00  0.216521D+00 -0.635129D-01
      8 -0.533509D-02  0.128681D+00  0.276909D+00  0.972129D-01 -0.176751D-01
      9 -0.216579D-05 -0.114297D-01  0.239189D-02  0.432381D-02 -0.124194D-01
     10 -0.666848D-02  0.227238D-01 -0.187437D-01 -0.338829D-01  0.973232D-01
     11 -0.183520D-02  0.212234D-01  0.373157D-01 -0.171928D-01  0.493837D-01
     12 -0.331748D-02  0.383654D-01 -0.171928D-01  0.157473D-01  0.892705D-01
     13  0.952894D-02 -0.110198D+00  0.493837D-01  0.892705D-01 -0.209589D+00
     14 -0.211527D-02 -0.167131D-01 -0.182274D-03  0.601011D-03 -0.763579D-03
     15 -0.212984D-02 -0.166883D-01  0.412770D-03  0.278620D-03 -0.474686D-03
     16 -0.194614D-02 -0.167113D-01  0.247061D-03 -0.651553D-03 -0.409214D-02
                6             7             8             9            10 
      6  0.760032D+00
      7  0.260462D-03  0.760032D+00
      8  0.676845D-03  0.552977D-03  0.760032D+00
      9 -0.266979D-02 -0.267338D-02 -0.268907D-02  0.158911D+02
     10 -0.137143D-01 -0.136949D-01 -0.136088D-01 -0.858900D-01  0.472250D+00
     11  0.391996D-03 -0.113056D-02  0.387886D-02  0.000000D+00  0.000000D+00
     12 -0.844298D-03  0.372779D-02  0.258590D-02  0.000000D+00  0.000000D+00
     13 -0.603070D-02 -0.479723D-02 -0.455766D-02  0.000000D+00  0.000000D+00
     14 -0.114363D-01 -0.809978D-02 -0.114334D-01 -0.545173D-02  0.138804D+00
     15 -0.114490D-01 -0.114338D-01 -0.819352D-02 -0.547946D-02  0.138671D+00
     16 -0.732862D-02 -0.112564D-01 -0.112600D-01 -0.101110D-01  0.110507D+00
               11            12            13            14            15 
     11  0.147773D+01
     12  0.000000D+00  0.147773D+01
     13  0.000000D+00  0.000000D+00  0.147773D+01
     14  0.201227D+00 -0.239556D+00  0.638817D-01  0.760032D+00
     15 -0.299919D+00 -0.108481D+00  0.957189D-02  0.635424D-03  0.760032D+00
     16  0.336483D-01  0.198347D+00  0.177096D+00 -0.283283D-02 -0.299809D-02
               16 
     16  0.760032D+00
 Entering OneElI...
 Calculate potential energy integrals
    NBasis =  16  MinDer = 0  MaxDer = 0
 Requested accuracy = 0.1000D-12
 PrmmSu-InSpLW:  IPartL=    0 NPrtUS=    1 NPrtUL=    1 DoSpLW=F IThBeg=    0 IThEnd=    0 NThAct=    1.
 PrsmSu:  NPrtUS=   1 ThrOK=F IAlg=1 NPAlg=1 LenDen=           0 ISkipM=0 DoSpLW=F IThBeg=    0 IThEnd=    0.
 Prism:   IPart=     0 DynPar=F LinDyn=F Incr=          13.
 PRISM was handed   131061379 working-precision words and    55 shell-pairs
 IPart=  0 NShTot=        1375 NBatch=          55 AvBLen=        25.0
 PrSmSu:  NxtVal=             14.
 ***** Potential Energy ***** 
                1             2             3             4             5 
      1  0.506566D+02
      2  0.648371D+01  0.112950D+02
      3 -0.661791D-02 -0.878691D-01  0.111671D+02
      4 -0.135032D-01 -0.177114D+00  0.148588D-01  0.111830D+02
      5  0.375023D-01  0.492439D+00 -0.387640D-01 -0.712664D-01  0.113647D+02
      6  0.169085D+01  0.479146D+01 -0.539238D+00 -0.298791D+01 -0.235109D+01
      7  0.167887D+01  0.476416D+01 -0.246860D+01  0.283424D+01 -0.670007D+00
      8  0.170270D+01  0.481424D+01  0.365372D+01  0.122783D+01 -0.515150D-01
      9  0.000000D+00  0.540795D+00 -0.166000D+00 -0.300146D+00  0.861939D+00
     10  0.722917D+00  0.308902D+01 -0.580713D+00 -0.105513D+01  0.302458D+01
     11  0.215273D+00  0.690194D+00  0.131131D+01 -0.283121D+00  0.813497D+00
     12  0.389116D+00  0.124230D+01 -0.280944D+00  0.956426D+00  0.146438D+01
     13 -0.111770D+01 -0.357636D+01  0.810237D+00  0.146979D+01 -0.274933D+01
     14  0.170416D+00  0.960249D+00  0.152944D+00 -0.642705D+00  0.895178D+00
     15  0.173242D+00  0.971322D+00 -0.617992D+00 -0.449489D+00  0.822569D+00
     16  0.137962D+00  0.805335D+00 -0.719193D-01  0.885114D-01  0.941578D+00
                6             7             8             9            10 
      6  0.759401D+01
      7  0.173712D+01  0.755654D+01
      8  0.176127D+01  0.175152D+01  0.761041D+01
      9  0.165237D+00  0.165711D+00  0.167935D+00  0.384603D+02
     10  0.113794D+01  0.113748D+01  0.115177D+01  0.538625D+01  0.992610D+01
     11  0.119060D+00 -0.179978D+00  0.770651D+00  0.112627D-01  0.136325D+00
     12 -0.948784D-01  0.802589D+00  0.559295D+00  0.170313D-01  0.215528D+00
     13 -0.140891D+01 -0.115147D+01 -0.106974D+01 -0.579075D-01 -0.680640D+00
     14  0.557643D+00  0.240383D+00  0.557279D+00  0.169693D+01  0.472540D+01
     15  0.565647D+00  0.555009D+00  0.245829D+00  0.169540D+01  0.471737D+01
     16  0.199409D+00  0.481584D+00  0.485111D+00  0.140483D+01  0.422177D+01
               11            12            13            14            15 
     11  0.977308D+01
     12  0.228885D-01  0.979404D+01
     13 -0.597984D-01 -0.114381D+00  0.100804D+02
     14  0.259091D+01 -0.294541D+01  0.561800D+00  0.735758D+01
     15 -0.373381D+01 -0.129044D+01 -0.126674D+00  0.168478D+01  0.733783D+01
     16  0.516273D+00  0.283660D+01  0.225684D+01  0.148611D+01  0.147443D+01
               16 
     16  0.709638D+01
 ****** Core Hamiltonian ****** 
                1             2             3             4             5 
      1 -0.286658D+02
      2 -0.661213D+01 -0.106880D+02
      3  0.661791D-02  0.878691D-01 -0.926778D+01
      4  0.135032D-01  0.177114D+00 -0.148588D-01 -0.928365D+01
      5 -0.375023D-01 -0.492439D+00  0.387640D-01  0.712664D-01 -0.946530D+01
      6 -0.169637D+01 -0.466399D+01  0.501324D+00  0.276918D+01  0.216152D+01
      7 -0.168457D+01 -0.463790D+01  0.228672D+01 -0.261772D+01  0.606494D+00
      8 -0.170804D+01 -0.468556D+01 -0.337681D+01 -0.113062D+01  0.338399D-01
      9 -0.261992D-05 -0.552225D+00  0.168392D+00  0.304470D+00 -0.874359D+00
     10 -0.729585D+00 -0.306629D+01  0.561969D+00  0.102125D+01 -0.292726D+01
     11 -0.217108D+00 -0.668971D+00 -0.127399D+01  0.265928D+00 -0.764113D+00
     12 -0.392433D+00 -0.120393D+01  0.263751D+00 -0.940679D+00 -0.137511D+01
     13  0.112723D+01  0.346616D+01 -0.760854D+00 -0.138052D+01  0.253974D+01
     14 -0.172531D+00 -0.976962D+00 -0.153126D+00  0.643306D+00 -0.895941D+00
     15 -0.175372D+00 -0.988010D+00  0.618405D+00  0.449768D+00 -0.823043D+00
     16 -0.139908D+00 -0.822046D+00  0.721664D-01 -0.891629D-01 -0.945670D+00
                6             7             8             9            10 
      6 -0.683398D+01
      7 -0.173686D+01 -0.679651D+01
      8 -0.176060D+01 -0.175097D+01 -0.685038D+01
      9 -0.167907D+00 -0.168385D+00 -0.170624D+00 -0.225692D+02
     10 -0.115165D+01 -0.115117D+01 -0.116538D+01 -0.547214D+01 -0.945385D+01
     11 -0.118668D+00  0.178847D+00 -0.766772D+00 -0.112627D-01 -0.136325D+00
     12  0.940341D-01 -0.798861D+00 -0.556709D+00 -0.170313D-01 -0.215528D+00
     13  0.140288D+01  0.114668D+01  0.106519D+01  0.579075D-01  0.680640D+00
     14 -0.569079D+00 -0.248483D+00 -0.568713D+00 -0.170238D+01 -0.458660D+01
     15 -0.577096D+00 -0.566443D+00 -0.254023D+00 -0.170088D+01 -0.457870D+01
     16 -0.206738D+00 -0.492840D+00 -0.496371D+00 -0.141494D+01 -0.411127D+01
               11            12            13            14            15 
     11 -0.829535D+01
     12 -0.228885D-01 -0.831631D+01
     13  0.597984D-01  0.114381D+00 -0.860264D+01
     14 -0.238968D+01  0.270586D+01 -0.497918D+00 -0.659755D+01
     15  0.343389D+01  0.118196D+01  0.136245D+00 -0.168414D+01 -0.657780D+01
     16 -0.482624D+00 -0.263826D+01 -0.207974D+01 -0.148894D+01 -0.147743D+01
               16 
     16 -0.633635D+01
 SVDSVc IOpt=   1 NormSV=T IR=1
 SVDSVc V= 2.60D+00 2.03D+00 1.64D+00 1.64D+00 1.37D+00 1.26D+00 1.26D+00 9.82D-01 9.63D-01 4.31D-01
 SVDSVc V= 3.78D-01 3.74D-01 3.37D-01 3.06D-01 2.58D-01 1.87D-01
 TstOVc:  Largest diagonal error= 2.44D-15 IB=1 I=    2.
 TstOVc:  Largest same sym error= 2.75D-15 IB=1 I=   10 J=    9.
 Orthogonalized basis functions: 
                 1             2             3             4             5 
      1   0.713418D-01  0.937961D-01 -0.386940D-03 -0.105545D-02  0.359171D-01
      2   0.286533D+00  0.259247D+00 -0.103641D-02 -0.133868D-02  0.479941D-01
      3  -0.998646D-02  0.327300D-01  0.395226D+00  0.381473D-01 -0.936923D-01
      4  -0.209208D-01  0.614243D-01 -0.612204D-01  0.377929D+00 -0.165240D+00
      5   0.505422D-01 -0.148752D+00  0.534175D-01  0.143887D+00  0.566999D+00
      6   0.184874D+00  0.197545D+00 -0.274585D-01 -0.254255D+00 -0.143134D+00
      7   0.181739D+00  0.204468D+00 -0.203900D+00  0.151020D+00 -0.112461D+00
      8   0.183147D+00  0.206364D+00  0.231253D+00  0.101241D+00 -0.103570D+00
      9   0.787916D-01 -0.103356D+00  0.795103D-03  0.747403D-02  0.600863D-01
     10   0.296014D+00 -0.256085D+00  0.218625D-02  0.205694D-01  0.722123D-01
     11   0.104381D-01  0.442581D-01  0.457315D+00  0.423223D-01  0.938456D-01
     12   0.129201D-01  0.905022D-01 -0.727240D-01  0.428550D+00  0.166507D+00
     13  -0.697611D-01 -0.200676D+00  0.678861D-01  0.173790D+00 -0.505889D+00
     14   0.184311D+00 -0.222536D+00  0.240883D+00 -0.159092D+00 -0.825497D-01
     15   0.184736D+00 -0.221349D+00 -0.269238D+00 -0.105643D+00 -0.774739D-01
     16   0.163761D+00 -0.202094D+00  0.342156D-01  0.310190D+00 -0.112974D+00
                 6             7             8             9            10 
      1  -0.663033D-02 -0.227190D-02  0.892111D+00  0.404779D+00 -0.599021D-01
      2  -0.689739D-02 -0.273528D-02  0.376778D-01 -0.133492D-01  0.163562D+00
      3   0.693800D-01  0.501263D+00 -0.110377D-01  0.251604D-01 -0.164307D+00
      4   0.484932D+00 -0.854763D-01 -0.181623D-01  0.445622D-01 -0.310308D+00
      5   0.137828D+00  0.560518D-01  0.616251D-01 -0.132583D+00  0.890152D+00
      6  -0.350261D+00 -0.299918D-01 -0.110510D+00 -0.410341D-01  0.267783D+00
      7   0.211354D+00 -0.295232D+00 -0.106701D+00 -0.441668D-01  0.261165D+00
      8   0.157699D+00  0.327712D+00 -0.105211D+00 -0.437413D-01  0.249591D+00
      9  -0.436321D-02 -0.940531D-03 -0.393931D+00  0.900980D+00  0.802179D-01
     10  -0.120129D-01 -0.157716D-02 -0.232493D-01 -0.128314D-01 -0.195243D+00
     11  -0.546185D-01 -0.414287D+00 -0.263420D-01 -0.825343D-02 -0.178313D+00
     12  -0.398110D+00  0.722903D-01 -0.507457D-01 -0.105865D-01 -0.289122D+00
     13  -0.118192D+00 -0.449455D-01  0.119947D+00  0.486083D-01  0.930516D+00
     14   0.187175D+00 -0.267880D+00  0.519520D-01 -0.104398D+00 -0.195531D+00
     15   0.139596D+00  0.297032D+00  0.518436D-01 -0.104181D+00 -0.204750D+00
     16  -0.336687D+00 -0.255998D-01  0.556400D-01 -0.113787D+00 -0.259825D+00
                11            12            13            14            15 
      1  -0.266463D-03  0.563549D-02  0.504167D-02 -0.262725D-03 -0.300986D+00
      2   0.334205D-02 -0.178576D-01 -0.270764D-01  0.859691D-03  0.146317D+01
      3  -0.308446D-01  0.981195D+00  0.900745D-01 -0.305376D+00  0.648332D-01
      4   0.875070D+00 -0.560100D-01  0.452036D+00  0.723245D-01  0.961418D-01
      5   0.257229D+00  0.156450D+00  0.272855D+00 -0.268024D-01 -0.223504D+00
      6   0.909448D+00  0.218940D+00  0.451489D+00 -0.387599D-02 -0.596015D+00
      7  -0.675772D+00  0.750308D+00 -0.167268D+00 -0.169755D+00 -0.597224D+00
      8  -0.278501D+00 -0.962641D+00 -0.168235D+00  0.178987D+00 -0.626082D+00
      9  -0.248529D-01 -0.627605D-02  0.601327D-01  0.334978D-03 -0.670445D-01
     10   0.698550D-01  0.171573D-01 -0.197172D+00 -0.105305D-02  0.361231D+00
     11   0.407520D-01  0.202444D+00 -0.192809D+00  0.110325D+01 -0.889687D-01
     12   0.376025D+00  0.443200D-01 -0.926901D+00 -0.283194D+00 -0.226830D+00
     13   0.137875D+00  0.431351D-01 -0.382356D+00  0.127344D+00  0.324019D+00
     14   0.235211D+00 -0.158322D+00 -0.397723D+00 -0.944694D+00 -0.286407D+00
     15   0.142291D+00  0.254663D+00 -0.381801D+00  0.948825D+00 -0.279074D+00
     16  -0.453570D+00 -0.105179D+00  0.101664D+01 -0.900963D-02 -0.129868D+00
                16 
      1   0.120091D+00
      2  -0.659085D+00
      3   0.427473D-01
      4   0.965040D-01
      5  -0.213197D+00
      6   0.177227D+00
      7   0.161570D+00
      8   0.167283D+00
      9  -0.310297D+00
     10   0.174076D+01
     11  -0.652911D-01
     12  -0.232868D+00
     13   0.411453D-01
     14  -0.813769D+00
     15  -0.813042D+00
     16  -0.509019D+00
 NBasis=    16 RedAO= T EigKep=  1.87D-01  NBF=    16
 NBsUse=    16 1.00D-06 EigRej= -1.00D+00 NBFU=    16
 Precomputing XC quadrature grid using
 IXCGrd= 4 IRadAn=           5 IRanWt=          -1 IRanGd=           0 AccXCQ= 0.00D+00.
 SetAtRh:  ITypeU=  23 NETotI=       0 ICharg=  1 NETot=       0.
 StAtR1:  I=    1 I1=    1 IA=  7 C=   7.0 OKShel=TTT
                                                  SSP
                                                  223
 StAtR1:  I=    2 I1=    2 IA=  1 C=   1.0 OKShel=T
                                                  S
                                                  1
 StAtR1:  I=    3 I1=    3 IA=  1 C=   1.0 OKShel=T
                                                  S
                                                  1
 StAtR1:  I=    4 I1=    4 IA=  1 C=   1.0 OKShel=T
                                                  S
                                                  1
 StAtR1:  I=    5 I1=    5 IA=  6 C=   6.0 OKShel=TTT
                                                  SSP
                                                  222
 StAtR1:  I=    6 I1=    6 IA=  1 C=   1.0 OKShel=T
                                                  S
                                                  1
 StAtR1:  I=    7 I1=    7 IA=  1 C=   1.0 OKShel=T
                                                  S
                                                  1
 StAtR1:  I=    8 I1=    8 IA=  1 C=   1.0 OKShel=T
                                                  S
                                                  1
          I=    1 IA=  7 I1=    1 NAtG= 0 NE=   7.000 C=   0.000 Err=-7.00D+00
          I=    2 IA=  1 I1=    2 NAtG= 0 NE=   1.000 C=   0.000 Err=-1.00D+00
          I=    3 IA=  1 I1=    3 NAtG= 0 NE=   1.000 C=   0.000 Err=-1.00D+00
          I=    4 IA=  1 I1=    4 NAtG= 0 NE=   1.000 C=   0.000 Err=-1.00D+00
          I=    5 IA=  6 I1=    5 NAtG= 0 NE=   6.000 C=   0.000 Err=-6.00D+00
          I=    6 IA=  1 I1=    6 NAtG= 0 NE=   1.000 C=   0.000 Err=-1.00D+00
          I=    7 IA=  1 I1=    7 NAtG= 0 NE=   1.000 C=   0.000 Err=-1.00D+00
          I=    8 IA=  1 I1=    8 NAtG= 0 NE=   1.000 C=   0.000 Err=-1.00D+00
 Generated NRdTot=       0 NPtTot=           0 NUsed=           0 NTot=          32
 NSgBfM=    16    16    16    16    16 MxSgAt=     8 MxSgA2=     8.
 IGWInf( 1) =          32 (NGWInf)
 IGWInf( 2) =           8 (NAtomA)
 IGWInf( 3) =           5 (IRadAn)
 IGWInf( 4) =          -1 (IRanWt)
 IGWInf( 5) =           0 (IRanGd)
 IGWInf( 6) =           2 (IRType)
 IGWInf( 7) =           0 (NRdTot)
 IGWInf( 8) =           0 (NGWTot)
 IGWInf( 9) =      173132 (LGWBtD)
 IGWInf(10) =           0 (NAtBtD)
 IGWInf(11) =           0 (NIRBtD)
 IGWInf(12) =           0 (NRRBtD)
 IGWInf(13) =           1 (NClRep)
 IGWInf(14) =           0 (ICntr3)
 IGWInf(15) =           0 (IPFlag)
 IGWInf(16) =           0 (IGet)  
 IGWInf(17) =           0         
 IGWInf(18) =          16         
 IGWInf(19) =          16         
 IGWInf(20) =          16         
 IGWInf(21) =          16         
 IGWInf(22) =          16         
 IGWInf(23) =           8         
 IGWInf(24) =           8         
 IGWInf(25) =           0         
 IGWInf(26) =           0         
 IGWInf(27) =           0         
 IGWInf(28) =           0         
 IGWInf(29) =           0         
 IGWInf(30) =           0         
 IGWInf(31) =           0         
 IGWInf(32) =           0         
 IAtBtD: 
              1            2            3            4            5
              6            7            8
 Leave Link  302 at Sat Apr  4 18:56:48 2026, MaxMem=   131072000 cpu:               0.2 elap:               0.2
 (Enter /trinity/shared/software/gaussian/g16_A03/g16/l303.exe)
 DipDrv:  MaxL=1.
 DipPsm:  J= 1 NJ= 4 MaxL=1 MMat= 4 MaxMat= 4.
 DipInt: DoE/N= T F RetVal/Mat= F T Init=T NMatP=  4 IDeriv=0 Min/MaxMlt=  0  1
 Entering OneElI...
 Multipole integrals L=0 to 1 MinM= 0 MaxM= 3.
 Requested accuracy = 0.1000D-12
 PrmmSu-InSpLW:  IPartL=    0 NPrtUS=    1 NPrtUL=    1 DoSpLW=F IThBeg=    0 IThEnd=    0 NThAct=    1.
 PrsmSu:  NPrtUS=   1 ThrOK=F IAlg=1 NPAlg=1 LenDen=           0 ISkipM=0 DoSpLW=F IThBeg=    0 IThEnd=    0.
 Prism:   IPart=     0 DynPar=F LinDyn=F Incr=           1.
 PRISM was handed   131062633 working-precision words and    55 shell-pairs
 IPart=  0 NShTot=          55 NBatch=           6 AvBLen=         9.2
 PrSmSu:  NxtVal=              2.
 Multipole matrices IBuc=  518 IX=    1 IJ=           1:
                1             2             3             4             5 
      1  0.903856D+02
      2  0.212440D+02  0.903856D+02
      3  0.579343D-01  0.739815D+00  0.903856D+02
      4  0.000000D+00  0.000000D+00  0.000000D+00  0.903856D+02
      5  0.000000D+00  0.000000D+00  0.000000D+00  0.000000D+00  0.903856D+02
      6  0.541872D+01  0.452964D+02 -0.485494D+01 -0.299951D+02 -0.259958D+02
      7  0.537836D+01  0.449036D+02 -0.245973D+02  0.296908D+02 -0.870930D+01
      8  0.546216D+01  0.459493D+02  0.385364D+02  0.134074D+02 -0.243772D+01
      9  0.341216D-05  0.221735D+01 -0.675548D+00 -0.122417D+01  0.351623D+01
     10  0.231978D+01  0.265503D+02 -0.476863D+01 -0.899468D+01  0.258358D+02
     11  0.691728D+00  0.592503D+01  0.131609D+02 -0.252370D+01  0.724892D+01
     12  0.124825D+01  0.103669D+02 -0.238072D+01  0.100696D+02  0.127658D+02
     13 -0.358539D+01 -0.297771D+02  0.683824D+01  0.127658D+02 -0.221538D+02
     14  0.548681D+00  0.904854D+01  0.205828D+01 -0.655343D+01  0.832607D+01
     15  0.557272D+00  0.904271D+01 -0.638102D+01 -0.435556D+01  0.742058D+01
     16  0.444704D+00  0.763730D+01 -0.492210D+00  0.145696D+01  0.915057D+01
                6             7             8             9            10 
      6  0.901399D+02
      7  0.188087D+02  0.891951D+02
      8  0.193428D+02  0.191770D+02  0.921619D+02
      9  0.675685D+00  0.677485D+00  0.687278D+00  0.898943D+02
     10  0.110917D+02  0.110602D+02  0.113444D+02  0.223264D+02  0.898943D+02
     11  0.979074D+00 -0.244000D+01  0.851113D+01  0.718555D-01  0.838744D+00
     12 -0.191828D+01  0.833766D+01  0.561443D+01  0.000000D+00  0.000000D+00
     13 -0.137020D+02 -0.107296D+02 -0.989544D+01  0.000000D+00  0.000000D+00
     14  0.641543D+01  0.233742D+01  0.646548D+01  0.691694D+01  0.492259D+02
     15  0.641257D+01  0.625854D+01  0.238923D+01  0.689560D+01  0.483549D+02
     16  0.194880D+01  0.558395D+01  0.568685D+01  0.574567D+01  0.447563D+02
               11            12            13            14            15 
     11  0.898943D+02
     12  0.000000D+00  0.898943D+02
     13  0.000000D+00  0.000000D+00  0.898943D+02
     14  0.286897D+02 -0.336858D+02  0.898287D+01  0.910848D+02
     15 -0.410919D+02 -0.150054D+02  0.132400D+01  0.189924D+02  0.881179D+02
     16  0.568207D+01  0.313817D+02  0.280194D+02  0.172162D+02  0.168318D+02
               16 
     16  0.901502D+02
 Multipole matrices IBuc=  518 IX=    2 IJ=           1:
                1             2             3             4             5 
      1  0.161798D+03
      2  0.380287D+02  0.161798D+03
      3  0.000000D+00  0.000000D+00  0.161798D+03
      4  0.579343D-01  0.739815D+00  0.000000D+00  0.161798D+03
      5  0.000000D+00  0.000000D+00  0.000000D+00  0.000000D+00  0.161798D+03
      6  0.969703D+01  0.808494D+02 -0.928005D+01 -0.531945D+02 -0.464003D+02
      7  0.963843D+01  0.812322D+02 -0.451161D+02  0.540525D+02 -0.157548D+02
      8  0.976992D+01  0.816356D+02  0.678537D+02  0.241665D+02 -0.433109D+01
      9  0.610794D-05  0.396906D+01 -0.121219D+01 -0.218961D+01  0.629405D+01
     10  0.415260D+01  0.475262D+02 -0.890690D+01 -0.158938D+02  0.462473D+02
     11  0.123609D+01  0.102656D+02  0.235460D+02 -0.435792D+01  0.126412D+02
     12  0.223568D+01  0.187473D+02 -0.443702D+01  0.180378D+02  0.230384D+02
     13 -0.641816D+01 -0.533023D+02  0.126412D+02  0.226277D+02 -0.396563D+02
     14  0.981625D+00  0.160510D+02  0.352534D+01 -0.115533D+02  0.147683D+02
     15  0.997973D+00  0.162930D+02 -0.116270D+02 -0.777657D+01  0.133711D+02
     16  0.796193D+00  0.137074D+02 -0.991569D+00  0.267523D+01  0.164237D+02
                6             7             8             9            10 
      6  0.160381D+03
      7  0.339389D+02  0.163216D+03
      8  0.342505D+02  0.344335D+02  0.162422D+03
      9  0.120921D+01  0.121365D+01  0.122953D+01  0.160910D+03
     10  0.197967D+02  0.200086D+02  0.201537D+02  0.399640D+02  0.160910D+03
     11  0.158968D+01 -0.457385D+01  0.149629D+02  0.000000D+00  0.000000D+00
     12 -0.333547D+01  0.151700D+02  0.100647D+02  0.718555D-01  0.838744D+00
     13 -0.244565D+02 -0.194079D+02 -0.175814D+02  0.000000D+00  0.000000D+00
     14  0.113237D+02  0.418408D+01  0.113581D+02  0.123625D+02  0.870946D+02
     15  0.115349D+02  0.114178D+02  0.427658D+01  0.123565D+02  0.872836D+02
     16  0.348922D+01  0.101387D+02  0.101327D+02  0.102890D+02  0.803876D+02
               11            12            13            14            15 
     11  0.160910D+03
     12  0.000000D+00  0.160910D+03
     13  0.000000D+00  0.000000D+00  0.160910D+03
     14  0.500799D+02 -0.592252D+02  0.158984D+02  0.159493D+03
     15 -0.748664D+02 -0.266858D+02  0.238935D+01  0.338891D+02  0.160268D+03
     16  0.956117D+01  0.567187D+02  0.503218D+02  0.305796D+02  0.304676D+02
               16 
     16  0.162419D+03
 Multipole matrices IBuc=  518 IX=    3 IJ=           1:
                1             2             3             4             5 
      1  0.588083D+02
      2  0.138222D+02  0.588083D+02
      3  0.000000D+00  0.000000D+00  0.588083D+02
      4  0.000000D+00  0.000000D+00  0.000000D+00  0.588083D+02
      5  0.579343D-01  0.739815D+00  0.000000D+00  0.000000D+00  0.588083D+02
      6  0.352238D+01  0.292144D+02 -0.335336D+01 -0.193463D+02 -0.164226D+02
      7  0.350044D+01  0.293020D+02 -0.162747D+02  0.193746D+02 -0.534029D+01
      8  0.354999D+01  0.295896D+02  0.245945D+02  0.863424D+01 -0.122437D+01
      9  0.226562D-05  0.150917D+01 -0.460714D+00 -0.832830D+00  0.239382D+01
     10  0.151203D+01  0.176490D+02 -0.330247D+01 -0.596985D+01  0.173546D+02
     11  0.450288D+00  0.382166D+01  0.874871D+01 -0.163601D+01  0.474225D+01
     12  0.813982D+00  0.690839D+01 -0.163601D+01  0.669634D+01  0.857252D+01
     13 -0.233683D+01 -0.196531D+02  0.466315D+01  0.842955D+01 -0.147825D+02
     14  0.357383D+00  0.598933D+01  0.131575D+01 -0.433843D+01  0.558270D+01
     15  0.363239D+00  0.605427D+01 -0.432129D+01 -0.291687D+01  0.504114D+01
     16  0.289857D+00  0.510879D+01 -0.369617D+00  0.974758D+00  0.618232D+01
                6             7             8             9            10 
      6  0.575800D+02
      7  0.121632D+02  0.583925D+02
      8  0.123371D+02  0.123810D+02  0.586949D+02
      9  0.460142D+00  0.461761D+00  0.467964D+00  0.613594D+02
     10  0.733733D+01  0.740172D+01  0.749098D+01  0.152394D+02  0.613594D+02
     11  0.589408D+00 -0.169266D+01  0.556343D+01  0.000000D+00  0.000000D+00
     12 -0.126949D+01  0.558120D+01  0.370896D+01  0.000000D+00  0.000000D+00
     13 -0.897937D+01 -0.709373D+01 -0.644755D+01  0.718555D-01  0.838744D+00
     14  0.422388D+01  0.155755D+01  0.424920D+01  0.471901D+01  0.334754D+02
     15  0.428071D+01  0.422883D+01  0.159182D+01  0.471347D+01  0.333703D+02
     16  0.130021D+01  0.377044D+01  0.378687D+01  0.392667D+01  0.308554D+02
               11            12            13            14            15 
     11  0.613594D+02
     12  0.000000D+00  0.613594D+02
     13  0.000000D+00  0.000000D+00  0.613594D+02
     14  0.192443D+02 -0.229099D+02  0.650299D+01  0.617374D+02
     15 -0.286208D+02 -0.103522D+02  0.130696D+01  0.130521D+02  0.614161D+02
     16  0.366927D+01  0.216293D+02  0.196702D+02  0.118214D+02  0.117195D+02
               16 
     16  0.627066D+02
 Fermi contact integrals: 
                 1             2             3             4             5 
      1   0.783766D+01  0.000000D+00  0.000000D+00  0.000000D+00  0.000000D+00
      2   0.260206D+00  0.813054D-01  0.806799D-01  0.819265D-01  0.229702D-01
      3   0.000000D+00 -0.181246D-01 -0.868405D-01  0.132535D+00 -0.713500D-02
      4   0.000000D+00 -0.104565D+00  0.103382D+00  0.465281D-01 -0.128979D-01
      5   0.000000D+00 -0.906230D-01 -0.303252D-01 -0.845966D-02  0.370471D-01
      6   0.743584D-01  0.628247D+00  0.172122D-01  0.175079D-01  0.709375D-02
      7   0.738210D-01  0.172122D-01  0.628247D+00  0.174203D-01  0.711584D-02
      8   0.748921D-01  0.175079D-01  0.174203D-01  0.628247D+00  0.721240D-02
      9   0.000000D+00  0.000000D+00  0.000000D+00  0.000000D+00  0.614289D+01
     10   0.314730D-01  0.626758D-02  0.629309D-02  0.640483D-02  0.215555D+00
     11   0.937230D-02  0.817597D-03 -0.233659D-02  0.771438D-02  0.000000D+00
     12   0.169422D-01 -0.176098D-02  0.770444D-02  0.514292D-02  0.000000D+00
     13  -0.486638D-01 -0.125784D-01 -0.991472D-02 -0.906439D-02  0.000000D+00
     14   0.739196D-02  0.339623D-02  0.665157D-03  0.337863D-02  0.745878D-01
     15   0.751622D-02  0.348243D-02  0.338068D-02  0.690080D-03  0.745235D-01
     16   0.596932D-02  0.489309D-03  0.277612D-02  0.278426D-02  0.613901D-01
                 6             7             8 
      1   0.000000D+00  0.000000D+00  0.000000D+00
      2   0.320165D-02  0.329213D-02  0.223717D-02
      3   0.134112D-02 -0.447278D-02 -0.315283D-03
      4  -0.442208D-02 -0.301913D-02  0.831469D-03
      5   0.561822D-02  0.514369D-02  0.522213D-02
      6   0.339623D-02  0.348243D-02  0.489309D-03
      7   0.665157D-03  0.338068D-02  0.277612D-02
      8   0.337863D-02  0.690080D-03  0.278426D-02
      9   0.275187D-05  0.272769D-05  0.000000D+00
     10   0.917324D-01  0.916600D-01  0.766001D-01
     11   0.101848D+00 -0.151784D+00  0.167041D-01
     12  -0.121248D+00 -0.549004D-01  0.984661D-01
     13   0.323328D-01  0.484415D-02  0.879162D-01
     14   0.628247D+00  0.174786D-01  0.148913D-01
     15   0.174786D-01  0.628247D+00  0.147600D-01
     16   0.148913D-01  0.147600D-01  0.628247D+00
 Leave Link  303 at Sat Apr  4 18:56:49 2026, MaxMem=   131072000 cpu:               0.0 elap:               0.1
 (Enter /trinity/shared/software/gaussian/g16_A03/g16/l401.exe)
 Initial guess from the checkpoint file:  "test.2.chk"
 B after Tr=     0.000000    0.000000    0.000000
         Rot=    1.000000    0.000000    0.000000    0.000000 Ang=   0.00 deg.
 Guess basis will be translated and rotated to current coordinates.
 JPrj=2 DoOrth=T DoCkMO=T.
 Leave Link  401 at Sat Apr  4 18:56:49 2026, MaxMem=   131072000 cpu:               0.1 elap:               0.1
 (Enter /trinity/shared/software/gaussian/g16_A03/g16/l502.exe)
 Keep J ints in memory in canonical form, NReq=871357.
 FoFCou: FMM=F IPFlag=           0 FMFlag=           0 FMFlg1=           0
         NFxFlg=           0 DoJE=F BraDBF=F KetDBF=F FulRan=T
         wScrn=  0.000000 ICntrl=       600 IOpCl=  0 I1Cent=           0 NGrid=           0
         NMat0=    1 NMatS0=    136 NMatT0=    0 NMatD0=    1 NMtDS0=    0 NMtDT0=    0
 Symmetry not used in FoFCou.
 Two-electron integral symmetry not used.
 Closed shell SCF:
 Using DIIS extrapolation, IDIIS=  1040.
 NGot=   131072000 LenX=   131061156 LenY=   131060274
 Requested convergence on RMS density matrix=1.00D-08 within 128 cycles.
 Requested convergence on MAX density matrix=1.00D-06.
 Requested convergence on             energy=1.00D-06.
 No special actions if energy rises.

 Cycle   1  Pass 1  IDiag  1:
 E= -95.7794879664327    
 DIIS: error= 6.34D-09 at cycle   1 NSaved=   1.
 NSaved= 1 IEnMin= 1 EnMin= -95.7794879664327     IErMin= 1 ErrMin= 6.34D-09
 ErrMax= 6.34D-09  0.00D+00 EMaxC= 1.00D-01 BMatC= 1.11D-15 BMatP= 1.11D-15
 IDIUse=1 WtCom= 1.00D+00 WtEn= 0.00D+00
 Coeff-Com:  0.100D+01
 Coeff:      0.100D+01
 Gap=     0.579 Goal=   None    Shift=    0.000
 RMSDP=5.29D-09 MaxDP=3.01D-08              OVMax= 0.00D+00

 SCF Done:  E(RB-P86) =  -95.7794879664     A.U. after    1 cycles
            NFock=  1  Conv=0.53D-08     -V/T= 2.0302
 KE= 9.296895413344D+01 PE=-3.108678876987D+02 EE= 7.456572131829D+01
 Leave Link  502 at Sat Apr  4 18:56:49 2026, MaxMem=   131072000 cpu:               0.5 elap:               0.5
 (Enter /trinity/shared/software/gaussian/g16_A03/g16/l601.exe)
 Copying SCF densities to generalized density rwf, IOpCl= 0 IROHF=0.

 **********************************************************************

            Population analysis using the SCF density.

 **********************************************************************

 Alpha  occ. eigenvalues --  -14.23473  -9.98818  -1.11515  -0.82747  -0.72241
 Alpha  occ. eigenvalues --   -0.71585  -0.61191  -0.53343  -0.52657
 Alpha virt. eigenvalues --    0.05270   0.07899   0.09081   0.10491   0.20787
 Alpha virt. eigenvalues --    0.30132   0.35813
     Molecular Orbital Coefficients:
                           1         2         3         4         5
                           O         O         O         O         O
     Eigenvalues --   -14.23473  -9.98818  -1.11515  -0.82747  -0.72241
   1 1   N  1S          0.99180   0.00085  -0.22697   0.05450   0.00048
   2        2S          0.04130  -0.00731   0.76778  -0.21857  -0.00228
   3        2PX         0.00016   0.00106   0.00861  -0.06438   0.48429
   4        2PY         0.00003   0.00196  -0.00762  -0.11306   0.37356
   5        2PZ        -0.00023  -0.00551  -0.00044   0.32687   0.22911
   6 2   H  1S         -0.00825  -0.00035   0.10203  -0.09925  -0.28955
   7 3   H  1S         -0.00815  -0.00038   0.09036  -0.09076  -0.04238
   8 4   H  1S         -0.00829  -0.00039   0.10229  -0.09716   0.33138
   9 5   C  1S          0.00061   0.98985  -0.07403  -0.20826   0.00080
  10        2S         -0.00682   0.05018   0.16188   0.59408  -0.00180
  11        2PX        -0.00095  -0.00013   0.01686   0.01715   0.13477
  12        2PY        -0.00165  -0.00110   0.02058  -0.01441   0.10197
  13        2PZ         0.00503  -0.00034  -0.07332  -0.02970   0.05959
  14 6   H  1S          0.00068  -0.01124   0.02195   0.15826   0.00960
  15 7   H  1S          0.00069  -0.01115   0.02034   0.14199  -0.07162
  16 8   H  1S          0.00055  -0.00992   0.02006   0.14655   0.06693
                           6         7         8         9        10
                           O         O         O         O         V
     Eigenvalues --    -0.71585  -0.61191  -0.53343  -0.52657   0.05270
   1 1   N  1S         -0.00587  -0.03144  -0.00108  -0.00310  -0.18549
   2        2S          0.02553   0.14601   0.00569   0.01489   1.24902
   3        2PX        -0.43010  -0.08640  -0.06896  -0.20808  -0.04002
   4        2PY         0.49092  -0.21096  -0.19757   0.07356  -0.24093
   5        2PZ         0.10281   0.55476  -0.05244   0.00335   0.34074
   6 2   H  1S         -0.21762  -0.09527   0.18154  -0.02268  -0.52436
   7 3   H  1S          0.34201  -0.10951  -0.07616   0.16743  -0.30303
   8 4   H  1S         -0.14046  -0.08987  -0.11329  -0.15652  -0.39765
   9 5   C  1S         -0.00139   0.05663   0.00346   0.00792   0.07299
  10        2S          0.00463  -0.16629  -0.00695  -0.02569  -0.37854
  11        2PX        -0.11661   0.05670   0.19063   0.57302  -0.17805
  12        2PY         0.13813   0.15367   0.51434  -0.19657  -0.34012
  13        2PZ         0.01293  -0.42090   0.20049   0.01644   0.81425
  14 6   H  1S         -0.08461  -0.17913  -0.17510   0.38539  -0.07306
  15 7   H  1S          0.03042  -0.14088  -0.24621  -0.35219  -0.07683
  16 8   H  1S          0.04998  -0.18991   0.46524  -0.06817   0.00533
                          11        12        13        14        15
                           V         V         V         V         V
     Eigenvalues --     0.07899   0.09081   0.10491   0.20787   0.30132
   1 1   N  1S          0.08541  -0.01945   0.02774  -0.01943   0.00147
   2        2S         -0.63565   0.13621  -0.19471   0.13162  -0.01051
   3        2PX        -0.28874   0.41104   0.83828   0.07842  -0.27712
   4        2PY        -0.16651   0.74945  -0.44787   0.40155   0.09037
   5        2PZ         0.84177   0.33917   0.13229   0.16152  -0.02281
   6 2   H  1S          0.67326   0.89710  -0.08385   0.27848   0.01809
   7 3   H  1S          0.40361  -0.32404   1.09256  -0.24519  -0.16169
   8 4   H  1S          0.67630  -0.75186  -0.62406  -0.22345   0.16100
   9 5   C  1S          0.07876  -0.01831   0.01307   0.09988  -0.01939
  10        2S         -0.45508   0.10558  -0.07678  -0.62119   0.13991
  11        2PX        -0.13087   0.06779   0.12616  -0.15487   1.07876
  12        2PY        -0.18781   0.22878  -0.12704  -0.78504  -0.36032
  13        2PZ         0.49626   0.22016  -0.00600  -0.54822   0.14313
  14 6   H  1S          0.06170   0.05850  -0.21945  -0.08601  -1.04509
  15 7   H  1S         -0.01137   0.14540   0.16962  -0.10300   0.84592
  16 8   H  1S          0.03271  -0.42132   0.12389   1.17114  -0.02218
                          16
                           V
     Eigenvalues --     0.35813
   1 1   N  1S          0.03442
   2        2S         -0.23893
   3        2PX         0.06067
   4        2PY         0.12797
   5        2PZ        -0.05046
   6 2   H  1S          0.14766
   7 3   H  1S          0.06097
   8 4   H  1S          0.04054
   9 5   C  1S         -0.21140
  10        2S          1.48985
  11        2PX        -0.28432
  12        2PY        -0.58391
  13        2PZ         0.13415
  14 6   H  1S         -0.89612
  15 7   H  1S         -1.09207
  16 8   H  1S         -0.22280
          Condensed to atoms (all electrons):
               1          2          3          4          5          6
     1  N    6.143936   0.335739   0.332441   0.335552   0.293484  -0.023531
     2  H    0.335739   0.388153  -0.021417  -0.022787  -0.023495  -0.003016
     3  H    0.332441  -0.021417   0.362121  -0.021863  -0.022816   0.002891
     4  H    0.335552  -0.022787  -0.021863   0.389848  -0.024289  -0.003169
     5  C    0.293484  -0.023495  -0.022816  -0.024289   4.758534   0.400722
     6  H   -0.023531  -0.003016   0.002891  -0.003169   0.400722   0.488341
     7  H   -0.022777  -0.003049  -0.003163   0.002966   0.401067  -0.020181
     8  H   -0.020185   0.002652  -0.002899  -0.002745   0.388649  -0.020350
               7          8
     1  N   -0.022777  -0.020185
     2  H   -0.003049   0.002652
     3  H   -0.003163  -0.002899
     4  H    0.002966  -0.002745
     5  C    0.401067   0.388649
     6  H   -0.020181  -0.020350
     7  H    0.462519  -0.017270
     8  H   -0.017270   0.572220
 Mulliken charges:
               1
     1  N   -0.374660
     2  H    0.347219
     3  H    0.374705
     4  H    0.346486
     5  C   -0.171857
     6  H    0.178292
     7  H    0.199887
     8  H    0.099928
 Sum of Mulliken charges =   1.00000
 Mulliken charges with hydrogens summed into heavy atoms:
               1
     1  N    0.693751
     5  C    0.306249
 Electronic spatial extent (au):  <R**2>=         680029.1043
 Charge=              1.0000 electrons
 Dipole moment (field-independent basis, Debye):
    X=            229.4008    Y=            410.9121    Z=            149.9871  Tot=            493.9328
 Quadrupole moment (field-independent basis, Debye-Ang):
   XX=          10945.8363   YY=          35143.1422   ZZ=           4673.5835
   XY=          19625.2440   XZ=           7163.0994   YZ=          12830.7699
 Traceless Quadrupole moment (field-independent basis, Debye-Ang):
   XX=          -5975.0177   YY=          18222.2882   ZZ=         -12247.2705
   XY=          19625.2440   XZ=           7163.0994   YZ=          12830.7699
 Octapole moment (field-independent basis, Debye-Ang**2):
  XXX=         521788.2924  YYY=        3004739.7196  ZZZ=         145294.5924  XYY=        1678452.3695
  XXY=         936423.8659  XXZ=         341765.6822  XZZ=         223193.1428  YZZ=         399788.9916
  YYZ=        1097292.2573  XYZ=         612776.8225
 Hexadecapole moment (field-independent basis, Debye-Ang**3):
 XXXX=       24850267.2103 YYYY=      256831598.4070 ZZZZ=        4505739.3497 XXXY=       44639832.7114
 XXXZ=       16290618.9929 YYYX=      143508526.5377 YYYZ=       93813096.2009 ZZZX=        6938483.0786
 ZZZY=       12428344.8176 XXYY=       80088440.1876 XXZZ=       10648307.6473 YYZZ=       34188397.9180
 XXYZ=       29237046.0019 YYXZ=       52405212.3134 ZZXY=       19092567.0089
 N-N= 4.755372428056D+01 E-N=-3.108678882269D+02  KE= 9.296895413344D+01
 Orbital energies and kinetic energies (alpha):
                                 1                 2
   1         O               -14.234731         21.622316
   2         O                -9.988183         15.563427
   3         O                -1.115155          1.748712
   4         O                -0.827466          1.438328
   5         O                -0.722414          1.231917
   6         O                -0.715845          1.241810
   7         O                -0.611912          1.391668
   8         O                -0.533428          1.102496
   9         O                -0.526574          1.143804
  10         V                 0.052698          3.032287
  11         V                 0.078987          2.600303
  12         V                 0.090806          2.235264
  13         V                 0.104909          2.271781
  14         V                 0.207875          2.380301
  15         V                 0.301323          2.319789
  16         V                 0.358130          2.745925
 Total kinetic energy from orbitals= 9.296895413344D+01
 No NMR shielding tensors so no spin-rotation constants.
 Leave Link  601 at Sat Apr  4 18:56:49 2026, MaxMem=   131072000 cpu:               0.1 elap:               0.1
 (Enter /trinity/shared/software/gaussian/g16_A03/g16/l602.exe)
 FitSet:  NAtFit=     8 NAtPot=     8 NAtFrz=     0 MDM=    12 TotChg=   1.00000
 Merz-Kollman atomic radii used.

 **********************************************************************

            Electrostatic Properties Using The SCF Density

 **********************************************************************

       Atomic Center    1 is at  47.830000 85.620000 31.120000
       Atomic Center    2 is at  47.700000 84.870000 30.470000
       Atomic Center    3 is at  47.200000 86.370000 30.900000
       Atomic Center    4 is at  48.770000 85.950000 31.060000
       Atomic Center    5 is at  47.570000 85.150000 32.470000
       Atomic Center    6 is at  48.200000 84.400000 32.670000
       Atomic Center    7 is at  46.630000 84.810000 32.500000
       Atomic Center    8 is at  47.705453 85.948457 33.182908
      Read-in Center  462 is at  46.950000 86.440000 34.370000
      Read-in Center  463 is at  48.860000 87.010000 33.340000
      Read-in Center  464 is at  49.520000 86.780000 32.620000
      Read-in Center  465 is at  49.140000 88.150000 34.210000
      Read-in Center  466 is at  49.290000 87.770000 35.130000
      Read-in Center  467 is at  50.380000 88.900000 33.760000
      Read-in Center  468 is at  50.570000 89.640000 34.390000
      Read-in Center  469 is at  51.160000 88.270000 33.740000
      Read-in Center  470 is at  50.180000 89.420000 32.500000
      Read-in Center  471 is at  50.950000 89.890000 32.220000
      Read-in Center  472 is at  47.950000 89.090000 34.220000
      Read-in Center  473 is at  47.700000 89.580000 33.380000
      Read-in Center  474 is at  47.290000 89.260000 35.250000
      Read-in Center  475 is at  46.539337 86.526189 34.826293
      Read-in Center  476 is at  47.360663 86.353811 33.913707
      Read-in Center  477 is at  49.406984 87.377971 33.275356
      Read-in Center  478 is at  48.313016 86.642029 33.404644
     453 points will be used for fitting atomic charges
 Fitting point charges to electrostatic potential
 Charges from ESP fit, RMS=   0.00168 RRMS=   0.00978:
 ESP charges:
               1
     1  N   -0.164102
     2  H    0.299935
     3  H    0.321548
     4  H    0.294678
     5  C    0.003505
     6  H    0.089141
     7  H    0.109289
     8  H    0.046005
 Sum of ESP charges =   1.00000
 ESP charges with hydrogens summed into heavy atoms:
               1
     1  N    0.752059
     5  C    0.247941
 Charge=   1.00000 Dipole=   229.4040   410.9124   149.9812 Tot=   493.9328
 -----------------------------------------------------------------

              Electrostatic Properties (Atomic Units)

 -----------------------------------------------------------------
    Center     Electric         -------- Electric Field --------
               Potential          X             Y             Z
 -----------------------------------------------------------------
    1 Atom    -17.576759     -0.004266     -0.006863      0.023934
    2 Atom     -0.652176     -0.011318     -0.074102     -0.065648
    3 Atom     -0.634857     -0.053985      0.066460     -0.021119
    4 Atom     -0.656777      0.097494      0.033881     -0.007018
    5 Atom    -14.217786     -0.002496     -0.004424      0.055036
    6 Atom     -0.836081      0.093013     -0.111132      0.048842
    7 Atom     -0.816872     -0.134665     -0.049883      0.025981
    8 Atom     -0.902297      0.008938      0.048950      0.061104
  462           0.160376     -0.011447      0.008411      0.026515
  463           0.183024      0.015788      0.017791      0.021228
  464           0.199194      0.022570      0.017430      0.025378
  465           0.124625      0.005197      0.009623      0.010651
  466           0.110728      0.004145      0.005831      0.009887
  467           0.106014      0.005780      0.007502      0.005805
  468           0.089390      0.003750      0.005502      0.004303
  469           0.104560      0.007218      0.005848      0.005589
  470           0.111107      0.006094      0.010020      0.003562
  471           0.096471      0.005331      0.007389      0.001842
  472           0.112838      0.000553      0.009658      0.008002
  473           0.114550     -0.000108      0.011314      0.006198
  474           0.095743     -0.000770      0.006226      0.006612
  475           0.135115     -0.006686      0.004972      0.016504
  476           0.222991     -0.043632      0.045689      0.097198
  477           0.160593      0.012378      0.013864      0.015895
  478           0.230826      0.057775      0.064413      0.038467
 -----------------------------------------------------------------
 Leave Link  602 at Sat Apr  4 18:56:49 2026, MaxMem=   131072000 cpu:               0.0 elap:               0.1
 (Enter /trinity/shared/software/gaussian/g16_A03/g16/l701.exe)
 ... and contract with generalized density number  0.
 Compute integral first derivatives.
 Leave Link  701 at Sat Apr  4 18:56:50 2026, MaxMem=   131072000 cpu:               0.1 elap:               0.1
 (Enter /trinity/shared/software/gaussian/g16_A03/g16/l702.exe)
 L702 exits ... SP integral derivatives will be done elsewhere.
 Leave Link  702 at Sat Apr  4 18:56:50 2026, MaxMem=   131072000 cpu:               0.0 elap:               0.0
 (Enter /trinity/shared/software/gaussian/g16_A03/g16/l703.exe)
 Integral derivatives from FoFJK, PRISM(SPDF).
 Compute integral first derivatives, UseDBF=F ICtDFT=           0.
 Calling FoFJK, ICntrl=      2527 FMM=F ISym2X=0 I1Cent= 0 IOpClX= 0 NMat=1 NMatS=1 NMatT=0.
 FoFJK:  IHMeth= 1 ICntrl=    2527 DoSepK=F KAlg= 0 I1Cent=           0 FoldK=F
 IRaf=         0 NMat=       1 IRICut=       1 DoRegI=T DoRafI=F ISym2E= 0 IDoP0=0 IntGTp=1.
 FoFCou: FMM=F IPFlag=           0 FMFlag=      100000 FMFlg1=         800
         NFxFlg=           0 DoJE=F BraDBF=F KetDBF=F FulRan=T
         wScrn=  0.000000 ICntrl=      2527 IOpCl=  0 I1Cent=           0 NGrid=           0
         NMat0=    1 NMatS0=      1 NMatT0=    0 NMatD0=    1 NMtDS0=    0 NMtDT0=    0
 Symmetry not used in FoFCou.
 Leave Link  703 at Sat Apr  4 18:56:51 2026, MaxMem=   131072000 cpu:               0.8 elap:               0.8
 (Enter /trinity/shared/software/gaussian/g16_A03/g16/l716.exe)
 Dipole        = 9.02532352D+01 1.61665271D+02 5.90094527D+01
 -------------------------------------------------------------------
 Center     Atomic                   Forces (Hartrees/Bohr)
 Number     Number              X              Y              Z
 -------------------------------------------------------------------
      1        7          -0.004284173    0.002567806    0.012747064
      2        1          -0.008425995   -0.047864158   -0.048254193
      3        1          -0.039921604    0.054136970   -0.018513550
      4        1           0.065825792    0.027877479   -0.014610270
      5        6           0.018289953    0.071091429    0.020260006
      6        1           0.072734688   -0.083960175    0.026197012
      7        1          -0.108297026   -0.033561951    0.011370399
      8        1          -0.006685605   -0.006775322   -0.009566780
 -------------------------------------------------------------------
 Cartesian Forces:  Max     0.108297026 RMS     0.044281202
 Force constants in Cartesian coordinates: 
                1             2             3             4             5 
      1  0.938311D+00
      2 -0.421239D-02  0.928106D+00
      3  0.184643D-01  0.374543D-01  0.841272D+00
      4 -0.364412D-01 -0.290333D-01 -0.263754D-01  0.220762D+00
      5 -0.328859D-01 -0.225290D+00 -0.173336D+00  0.307945D-01  0.402009D+00
      6 -0.357283D-01 -0.208020D+00 -0.216594D+00  0.378440D-01  0.174347D+00
      7 -0.167439D+00  0.164735D+00 -0.515845D-01  0.616146D-01 -0.386259D-02
      8  0.178225D+00 -0.245650D+00  0.661615D-01 -0.904551D-02  0.762902D-01
      9 -0.757479D-01  0.900657D-01 -0.593285D-01 -0.723281D-02  0.276516D-01
     10 -0.369798D+00 -0.120118D+00  0.267483D-01  0.677701D-01  0.273108D-02
     11 -0.129634D+00 -0.780919D-01  0.963075D-02  0.134681D-01  0.683662D-01
     12  0.600320D-01  0.206112D-01 -0.363432D-01  0.239355D-01  0.200492D-01
     13 -0.838247D-01 -0.144726D-01  0.428903D-01  0.229495D-01  0.310657D-02
     14 -0.148823D-01 -0.103055D+00  0.776424D-01  0.369919D-02  0.320596D-01
     15  0.422659D-01  0.743840D-01 -0.300215D+00 -0.290528D-02 -0.394737D-02
     16  0.264637D-01 -0.293633D-02 -0.447759D-02  0.387109D-01 -0.412089D-02
     17 -0.934929D-03  0.260024D-01 -0.645095D-02  0.239481D-01  0.177507D-02
     18 -0.846207D-02 -0.257964D-02  0.420651D-01  0.304418D-01 -0.460014D-01
     19  0.272049D-01  0.286025D-02 -0.231264D-02  0.310695D-01 -0.201915D-02
     20  0.133851D-02  0.238055D-01 -0.677116D-02 -0.401622D-01  0.188516D-01
     21  0.314069D-02 -0.500343D-02  0.434337D-01 -0.534865D-01 -0.241545D-01
     22  0.209745D-01  0.317709D-02 -0.335275D-02 -0.509842D-01  0.625645D-02
     23  0.298557D-02  0.296250D-01 -0.433073D-02  0.633107D-02 -0.186102D-01
     24 -0.396463D-02 -0.691252D-02  0.411607D-01 -0.222124D-02  0.253919D-01
                6             7             8             9            10 
      6  0.293357D+00
      7  0.553962D-02  0.346899D+00
      8 -0.644868D-02 -0.155945D+00  0.387928D+00
      9  0.426107D-01  0.487890D-01 -0.280080D-01  0.176309D+00
     10 -0.325165D-02  0.797292D-01  0.602746D-02 -0.749233D-02  0.510883D+00
     11 -0.169460D-02 -0.212486D-01  0.565311D-01  0.988195D-02  0.973442D-01
     12  0.449080D-01  0.190997D-01  0.547823D-02  0.443285D-01  0.426803D-03
     13 -0.442147D-02  0.258176D-01 -0.163530D-02 -0.856657D-02  0.271450D-01
     14 -0.964404D-02 -0.299528D-02  0.260152D-01 -0.247430D-02  0.291905D-02
     15  0.403158D-01 -0.463381D-02 -0.687580D-02  0.417603D-01 -0.232381D-02
     16  0.161911D-02 -0.268154D-01 -0.281151D-01  0.906633D-02 -0.168294D-02
     17  0.167068D-01 -0.275124D-01 -0.825201D-03 -0.341041D-01 -0.145441D-01
     18  0.624454D-01  0.954791D-02 -0.352353D-01  0.579040D-03  0.988194D-02
     19  0.799167D-03 -0.211711D-02 -0.154689D-01  0.909230D-02  0.131042D-01
     20  0.100473D-01  0.512839D-01  0.566225D-01 -0.153295D-01  0.276830D-01
     21  0.539281D-01 -0.285769D-01 -0.134819D-01  0.456495D-01 -0.248684D-01
     22 -0.240051D-02  0.377628D-01  0.259570D-01  0.320919D-01  0.283003D-01
     23  0.247062D-01 -0.445552D-02 -0.146038D-02 -0.476834D-01 -0.204267D-02
     24  0.344801D-01  0.181890D-02  0.184099D-01  0.635425D-01  0.879169D-03
               11            12            13            14            15 
     11  0.245737D+00
     12  0.139921D-01  0.165302D+00
     13  0.217279D-02  0.355251D-02  0.922672D+00
     14  0.234117D-01 -0.490071D-02 -0.172181D-01  0.864602D+00
     15 -0.705735D-02  0.432736D-01  0.183087D-01  0.969486D-03  0.784693D+00
     16  0.518378D-01 -0.275441D-01 -0.170610D+00  0.168586D+00 -0.494293D-01
     17  0.558369D-01 -0.124560D-01  0.184970D+00 -0.254261D+00  0.615100D-01
     18 -0.166979D-01  0.460728D-01 -0.710893D-01  0.820610D-01 -0.549672D-01
     19  0.290179D-01 -0.234229D-01 -0.365117D+00 -0.122142D+00  0.160398D-01
     20 -0.327711D-01 -0.185065D-01 -0.135324D+00 -0.812098D-01  0.426087D-02
     21 -0.194918D-01 -0.649866D-02  0.458274D-01  0.145850D-01 -0.330318D-01
     22 -0.429585D-01 -0.560795D-01 -0.235806D-01 -0.179666D-01 -0.173222D-01
     23  0.164314D-01 -0.242675D-01 -0.215995D-01 -0.152112D+00 -0.123244D+00
     24  0.114368D-01  0.544087D-01 -0.265016D-01 -0.158239D+00 -0.166377D+00
               16            17            18            19            20 
     16  0.351056D+00
     17 -0.160398D+00  0.392752D+00
     18  0.468603D-01 -0.230365D-01  0.174614D+00
     19  0.796517D-01  0.656245D-02 -0.713904D-02  0.506020D+00
     20 -0.220438D-01  0.557033D-01  0.103495D-01  0.980098D-01  0.246438D+00
     21  0.192608D-01  0.636402D-02  0.446514D-01  0.104148D-01  0.190216D-01
     22  0.586780D-01 -0.120911D-01 -0.100415D-01  0.656351D-01  0.192149D-01
     23 -0.280947D-02  0.784676D-01  0.311402D-01  0.317972D-02  0.680112D-01
     24  0.464449D-02 -0.853330D-02  0.399911D-01 -0.347155D-02 -0.307218D-02
               21            22            23            24 
     21  0.164562D+00
     22  0.282880D-01  0.218665D+00
     23  0.221609D-01  0.184108D-01  0.335098D+00
     24  0.427565D-01  0.288165D-01  0.121518D+00  0.245489D+00
 Leave Link  716 at Sat Apr  4 18:56:51 2026, MaxMem=   131072000 cpu:               0.0 elap:               0.1
 (Enter /trinity/shared/software/gaussian/g16_A03/g16/l103.exe)

 GradGradGradGradGradGradGradGradGradGradGradGradGradGradGradGradGradGrad
 Berny optimization.
 Search for a local minimum.
 Step number   1 out of a maximum of    2
 All quantities printed in internal units (Hartrees-Bohrs-Radians)
 Second derivative matrix not updated -- first step.
 ITU=  0
     Eigenvalues ---    0.01820   0.04921   0.05172   0.06516   0.09707
     Eigenvalues ---    0.09919   0.16301   0.16823   0.18313   0.18406
     Eigenvalues ---    0.23977   0.37142   0.65018   0.98620   1.06446
     Eigenvalues ---    1.18370   1.23102   1.25065
 Quadratic step=6.816D-01 exceeds max=3.000D-01 adjusted using Lamda=-2.480D-01.
 Angle between NR and scaled steps=  26.85 degrees.
 Angle between quadratic step and forces=  24.22 degrees.
 Linear search not attempted -- first point.
 Variable       Old X    -DE/DX   Delta X   Delta X   Delta X     New X
                                 (Linear)    (Quad)   (Total)
    X1       90.38560  -0.00428   0.00000   0.00884   0.00884  90.39444
    Y1      161.79835   0.00257   0.00000   0.01814   0.01814 161.81649
    Z1       58.80828   0.01275   0.00000  -0.02069  -0.02069  58.78758
    X2       90.13994  -0.00843   0.00000  -0.00920  -0.00920  90.13074
    Y2      160.38106  -0.04786   0.00000  -0.06182  -0.06182 160.31924
    Z2       57.57996  -0.04825   0.00000  -0.06942  -0.06942  57.51053
    X3       89.19507  -0.03992   0.00000  -0.04901  -0.04901  89.14606
    Y3      163.21565   0.05414   0.00000   0.08627   0.08627 163.30191
    Z3       58.39254  -0.01851   0.00000  -0.03924  -0.03924  58.35329
    X4       92.16194   0.06583   0.00000   0.09705   0.09705  92.25899
    Y4      162.42196   0.02788   0.00000   0.04879   0.04879 162.47075
    Z4       58.69489  -0.01461   0.00000  -0.04337  -0.04337  58.65152
    X5       89.89427   0.01829   0.00000  -0.00108  -0.00108  89.89320
    Y5      160.91018   0.07109   0.00000   0.00225   0.00225 160.91243
    Z5       61.35941   0.02026   0.00000   0.04007   0.04007  61.39948
    X6       91.08480   0.07273   0.00000   0.10546   0.10546  91.19026
    Y6      159.49288  -0.08396   0.00000  -0.10652  -0.10652 159.38637
    Z6       61.73735   0.02620   0.00000   0.06638   0.06638  61.80374
    X7       88.11793  -0.10830   0.00000  -0.15266  -0.15266  87.96527
    Y7      160.26767  -0.03356   0.00000  -0.03078  -0.03078 160.23690
    Z7       61.41610   0.01137   0.00000   0.04847   0.04847  61.46457
    X8       90.15024  -0.00669   0.00000  -0.01239  -0.01239  90.13785
    Y8      162.41904  -0.00678   0.00000   0.01055   0.01055 162.42960
    Z8       62.70661  -0.00957   0.00000  -0.00622  -0.00622  62.70038
         Item               Value     Threshold  Converged?
 Maximum Force            0.108297     0.000450     NO 
 RMS     Force            0.044281     0.000300     NO 
 Maximum Displacement     0.152656     0.001800     NO 
 RMS     Displacement     0.061243     0.001200     NO 
 Predicted change in Energy=-4.084143D-02
 GradGradGradGradGradGradGradGradGradGradGradGradGradGradGradGradGradGrad

 Leave Link  103 at Sat Apr  4 18:56:51 2026, MaxMem=   131072000 cpu:               0.0 elap:               0.0
 (Enter /trinity/shared/software/gaussian/g16_A03/g16/l9999.exe)

 Test job not archived.
 1\1\GINC-LOGIN\Force\RBP86\STO-3G\C1H6N1(1+)\JANSEA92\04-Apr-2026\0\\#
 P BP86/STO-3G guess=read nosymm gfinput gfprint force charge guess=huc
 kel punch=derivatives iop(3/33=1,6/7=3) prop(field,read) pop=esp\\QM p
 art of step 2\\1,1\N,47.83,85.62,31.12\H,47.7,84.87,30.47\H,47.2,86.37
 ,30.9\H,48.77,85.95,31.06\C,47.57,85.15,32.47\H,48.2,84.4,32.67\H,46.6
 3,84.81,32.5\H,47.705453,85.948457,33.182908\\Version=ES64L-G16RevA.03
 \HF=-95.779488\RMSD=5.295e-09\RMSF=4.428e-02\Dipole=0.099827,0.2838084
 ,-1.0085382\Quadrupole=-4442.2792132,13547.8246343,-9105.5454212,14590
 .8878909,5325.5888669,9539.3629154\PG=C01 [X(C1H6N1)]\\@


 LIFE IS SO UNCERTAIN - EAT DESSERT FIRST.
 Job cpu time:       0 days  0 hours  0 minutes  2.6 seconds.
 Elapsed time:       0 days  0 hours  0 minutes  2.6 seconds.
 File lengths (MBytes):  RWF=     17 Int=      0 D2E=      0 Chk=      2 Scr=      2
 Normal termination of Gaussian 16 at Sat Apr  4 18:56:51 2026.
