 Entering Gaussian System, Link 0=g16
 Input=/net/work/jansen/gmx2qmmm_portable/examples/opt/test.2.gjf
 Output=/net/work/jansen/gmx2qmmm_portable/examples/opt/test.2.log
 Initial command:
 /afs/math/software/gaussian/g16.A03/g16/l1.exe "/net/work/jansen/gmx2qmmm_portable/examples/opt/Gau-22669.inp" -scrdir="/net/work/jansen/gmx2qmmm_portable/examples/opt/"
 Entering Link 1 = /afs/math/software/gaussian/g16.A03/g16/l1.exe PID=     22670.
  
 Copyright (c) 1988,1990,1992,1993,1995,1998,2003,2009,2016,
            Gaussian, Inc.  All Rights Reserved.
  
 This is part of the Gaussian(R) 16 program.  It is based on
 the Gaussian(R) 09 system (copyright 2009, Gaussian, Inc.),
 the Gaussian(R) 03 system (copyright 2003, Gaussian, Inc.),
 the Gaussian(R) 98 system (copyright 1998, Gaussian, Inc.),
 the Gaussian(R) 94 system (copyright 1995, Gaussian, Inc.),
 the Gaussian 92(TM) system (copyright 1992, Gaussian, Inc.),
 the Gaussian 90(TM) system (copyright 1990, Gaussian, Inc.),
 the Gaussian 88(TM) system (copyright 1988, Gaussian, Inc.),
 the Gaussian 86(TM) system (copyright 1986, Carnegie Mellon
 University), and the Gaussian 82(TM) system (copyright 1983,
 Carnegie Mellon University). Gaussian is a federally registered
 trademark of Gaussian, Inc.
  
 This software contains proprietary and confidential information,
 including trade secrets, belonging to Gaussian, Inc.
  
 This software is provided under written license and may be
 used, copied, transmitted, or stored only in accord with that
 written license.
  
 The following legend is applicable only to US Government
 contracts under FAR:
  
                    RESTRICTED RIGHTS LEGEND
  
 Use, reproduction and disclosure by the US Government is
 subject to restrictions as set forth in subparagraphs (a)
 and (c) of the Commercial Computer Software - Restricted
 Rights clause in FAR 52.227-19.
  
 Gaussian, Inc.
 340 Quinnipiac St., Bldg. 40, Wallingford CT 06492
  
  
 ---------------------------------------------------------------
 Warning -- This program may not be used in any manner that
 competes with the business of Gaussian, Inc. or will provide
 assistance to any competitor of Gaussian, Inc.  The licensee
 of this program is prohibited from giving any competitor of
 Gaussian, Inc. access to this program.  By using this program,
 the user acknowledges that Gaussian, Inc. is engaged in the
 business of creating and licensing software in the field of
 computational chemistry and represents and warrants to the
 licensee that it is not a competitor of Gaussian, Inc. and that
 it will not use this program in any manner prohibited above.
 ---------------------------------------------------------------
  

 Cite this work as:
 Gaussian 16, Revision A.03,
 M. J. Frisch, G. W. Trucks, H. B. Schlegel, G. E. Scuseria, 
 M. A. Robb, J. R. Cheeseman, G. Scalmani, V. Barone, 
 G. A. Petersson, H. Nakatsuji, X. Li, M. Caricato, A. V. Marenich, 
 J. Bloino, B. G. Janesko, R. Gomperts, B. Mennucci, H. P. Hratchian, 
 J. V. Ortiz, A. F. Izmaylov, J. L. Sonnenberg, D. Williams-Young, 
 F. Ding, F. Lipparini, F. Egidi, J. Goings, B. Peng, A. Petrone, 
 T. Henderson, D. Ranasinghe, V. G. Zakrzewski, J. Gao, N. Rega, 
 G. Zheng, W. Liang, M. Hada, M. Ehara, K. Toyota, R. Fukuda, 
 J. Hasegawa, M. Ishida, T. Nakajima, Y. Honda, O. Kitao, H. Nakai, 
 T. Vreven, K. Throssell, J. A. Montgomery, Jr., J. E. Peralta, 
 F. Ogliaro, M. J. Bearpark, J. J. Heyd, E. N. Brothers, K. N. Kudin, 
 V. N. Staroverov, T. A. Keith, R. Kobayashi, J. Normand, 
 K. Raghavachari, A. P. Rendell, J. C. Burant, S. S. Iyengar, 
 J. Tomasi, M. Cossi, J. M. Millam, M. Klene, C. Adamo, R. Cammi, 
 J. W. Ochterski, R. L. Martin, K. Morokuma, O. Farkas, 
 J. B. Foresman, and D. J. Fox, Gaussian, Inc., Wallingford CT, 2016.
 
 ******************************************
 Gaussian 16:  ES64L-G16RevA.03 25-Dec-2016
                22-May-2026 
 ******************************************
 %NPROCSHARED=1
 Will use up to    1 processors via shared memory.
 %MEM=1000MB
 %CHK=test.2.chk
 %OLDCHK=test.1.chk
 Copying data from "test.1.chk" to current chk file "test.2.chk"
 IOpt=  2 FromEx=T IUOpen= 4 IOptOp= 5 NList=   0 IFRang= 0 IUIn= 4 IUOut= 2.
 ----------------------------------------------------------------------
 #P BP86/STO-3G guess=read nosymm gfinput gfprint force charge guess=hu
 ckel punch=derivatives iop(3/33=1,6/7=3) prop(field,read) pop=esp
 ----------------------------------------------------------------------
 1/10=7,18=10,28=-2,30=1,38=1,125=101/1,3;
 2/12=2,15=1,17=6,18=5,29=2,40=1/2;
 3/6=3,11=2,24=110,25=1,30=1,33=1,71=1,74=404,116=-2/1,2,3;
 4/5=1,11=4/1;
 5/5=2,38=6/2;
 6/7=3,8=2,9=2,10=2,14=2,15=9,28=1/1,2;
 7/7=1,16=-2,29=1,30=1/1,2,3,16;
 1/10=7,18=10,28=-2,30=1/3;
 99/10=4,12=1/99;
 Leave Link    1 at Fri May 22 12:39:25 2026, MaxMem=   131072000 cpu:               0.1 elap:               0.1
 (Enter /afs/math/software/gaussian/g16.A03/g16/l101.exe)
 -----------------
 QM part of step 2
 -----------------
 Symbolic Z-matrix:
 Charge =  1 Multiplicity = 1
 N                     47.84878   85.62537   31.1171 
 H                     47.69891   84.84452   30.44554 
 H                     47.19151   86.39183   30.89674 
 H                     48.83316   85.97665   31.05292 
 C                     47.57974   85.17799   32.48894 
 H                     48.23932   84.35464   32.68714 
 H                     46.57373   84.79461   32.50446 
 H                     47.70685   85.95491   33.182 
 
 ITRead=  0  0  0  0  0  0  0  0
 MicOpt= -1 -1 -1 -1 -1 -1 -1 -1
 NAtoms=      8 NQM=        8 NQMF=       0 NMMI=      0 NMMIF=      0
                NMic=       0 NMicF=      0.
                    Isotopes and Nuclear Properties:
 (Nuclear quadrupole moments (NQMom) in fm**2, nuclear magnetic moments (NMagM)
  in nuclear magnetons)

  Atom         1           2           3           4           5           6           7           8
 IAtWgt=          14           1           1           1          12           1           1           1
 AtmWgt=  14.0030740   1.0078250   1.0078250   1.0078250  12.0000000   1.0078250   1.0078250   1.0078250
 NucSpn=           2           1           1           1           0           1           1           1
 AtZEff=  -0.0000000  -0.0000000  -0.0000000  -0.0000000  -0.0000000  -0.0000000  -0.0000000  -0.0000000
 NQMom=    2.0440000   0.0000000   0.0000000   0.0000000   0.0000000   0.0000000   0.0000000   0.0000000
 NMagM=    0.4037610   2.7928460   2.7928460   2.7928460   0.0000000   2.7928460   2.7928460   2.7928460
 AtZNuc=   7.0000000   1.0000000   1.0000000   1.0000000   6.0000000   1.0000000   1.0000000   1.0000000
 Background charge distribution read from input stream:
 Point Charges:
 XYZ=   46.9490   86.4245   34.3578 Q=   -0.2861 A=    0.0000 R=    0.0000 C=    0.0000
 XYZ=   48.8594   86.9989   33.3320 Q=   -0.0960 A=    0.0000 R=    0.0000 C=    0.0000
 XYZ=   49.5227   86.7859   32.6218 Q=    0.2681 A=    0.0000 R=    0.0000 C=    0.0000
 XYZ=   49.1380   88.1482   34.1900 Q=   -0.2722 A=    0.0000 R=    0.0000 C=    0.0000
 XYZ=   49.2925   87.7656   35.1583 Q=    0.1304 A=    0.0000 R=    0.0000 C=    0.0000
 XYZ=   50.3590   88.8920   33.7475 Q=    0.1123 A=    0.0000 R=    0.0000 C=    0.0000
 XYZ=   50.5756   89.6672   34.4145 Q=    0.0813 A=    0.0000 R=    0.0000 C=    0.0000
 XYZ=   51.1851   88.2500   33.7408 Q=    0.0813 A=    0.0000 R=    0.0000 C=    0.0000
 XYZ=   50.1866   89.4109   32.4800 Q=   -0.6514 A=    0.0000 R=    0.0000 C=    0.0000
 XYZ=   50.9559   89.8982   32.2196 Q=    0.4474 A=    0.0000 R=    0.0000 C=    0.0000
 XYZ=   47.9695   89.0556   34.3037 Q=    0.8113 A=    0.0000 R=    0.0000 C=    0.0000
 XYZ=   47.6625   89.6363   33.2636 Q=   -0.8132 A=    0.0000 R=    0.0000 C=    0.0000
 XYZ=   47.2900   89.2600   35.2500 Q=   -0.8132 A=    0.0000 R=    0.0000 C=    0.0000
 XYZ=   46.5412   86.5035   34.8097 Q=   -0.2755 A=    0.0000 R=    0.0000 C=    0.0000
 XYZ=   47.3567   86.3455   33.9059 Q=    0.2755 A=    0.0000 R=    0.0000 C=    0.0000
 XYZ=   49.4011   87.3585   33.2686 Q=   -0.2832 A=    0.0000 R=    0.0000 C=    0.0000
 XYZ=   48.3177   86.6393   33.3955 Q=    0.2832 A=    0.0000 R=    0.0000 C=    0.0000
 Pt Chg Charge=             -1.0000 electrons
 Pt Chg Dipole moment (Debye):
    X=           -221.6123    Y=           -429.4515    Z=           -165.7823  Tot=            510.9055
 Pt Chg Quadrupole moment (Debye-Ang):
   XX=         -10201.5616   YY=         -38396.0681   ZZ=          -5727.0724
   XY=         -19821.2850   XZ=          -7650.7073   YZ=         -14814.9275
 Pt Chg Traceless Quadrupole moment (Debye-Ang):
   XX=           7906.6724   YY=         -20287.8341   ZZ=          12381.1616
   XY=         -19821.2850   XZ=          -7650.7073   YZ=         -14814.9275
 Pt Chg Octapole moment (Debye-Ang**2):
  XXX=        -468380.4038  YYY=       -3432806.7452  ZZZ=        -198023.4024  XYY=       -1772764.7294
  XXY=        -912780.0612  XXZ=        -352297.2913  XZZ=        -264355.6281  YZZ=        -511540.0787
  YYZ=       -1323912.0387  XYZ=        -683930.8324
 Pt Chg Hexadecapole moment (Debye-Ang**3):
 XXXX=      -21439285.5854 YYYY=     -306903906.3443 ZZZZ=       -6853144.7650 XXXY=      -41924508.1125
 XXXZ=      -16181460.2089 YYYX=     -158545003.0202 YYYZ=     -118308831.0728 ZZZX=       -9142356.0289
 ZZZY=      -17678962.4911 XXYY=      -81665417.9766 XXZZ=      -12176457.6207 YYZZ=      -45691250.5559
 XXYZ=      -31504698.5640 YYXZ=      -61138318.2876 ZZXY=      -23619973.4224
 Leave Link  101 at Fri May 22 12:39:25 2026, MaxMem=   131072000 cpu:               0.1 elap:               0.1
 (Enter /afs/math/software/gaussian/g16.A03/g16/l103.exe)

 GradGradGradGradGradGradGradGradGradGradGradGradGradGradGradGradGradGrad
 Berny optimization.
 Initialization pass.
 Trust Radius=3.00D-01 FncErr=1.00D-07 GrdErr=1.00D-07 EigMax=2.50D+02 EigMin=1.00D-04
 Number of steps in this run=      2 maximum allowed number of steps=      2.
 GradGradGradGradGradGradGradGradGradGradGradGradGradGradGradGradGradGrad

 Leave Link  103 at Fri May 22 12:39:25 2026, MaxMem=   131072000 cpu:               0.0 elap:               0.0
 (Enter /afs/math/software/gaussian/g16.A03/g16/l202.exe)
 ---------------------------------------------------------------------------------------------------
                            Z-MATRIX (ANGSTROMS AND DEGREES)
   CD    Cent   Atom    N1       Length/X        N2       Alpha/Y        N3        Beta/Z          J
 ---------------------------------------------------------------------------------------------------
      1      1  N        0  47.848780         85.625365         31.117099
      2      2  H        0  47.698913         84.844520         30.445541
      3      3  H        0  47.191511         86.391826         30.896739
      4      4  H        0  48.833161         85.976650         31.052918
      5      5  C        0  47.579740         85.177993         32.488937
      6      6  H        0  48.239318         84.354642         32.687138
      7      7  H        0  46.573729         84.794610         32.504458
      8      8  H        0  47.706846         85.954908         33.181995
 ---------------------------------------------------------------------------------------------------
                         Z-Matrix orientation:                         
 ---------------------------------------------------------------------
 Center     Atomic      Atomic             Coordinates (Angstroms)
 Number     Number       Type             X           Y           Z
 ---------------------------------------------------------------------
      1          7           0       47.848780   85.625365   31.117099
      2          1           0       47.698913   84.844520   30.445541
      3          1           0       47.191511   86.391826   30.896739
      4          1           0       48.833161   85.976650   31.052918
      5          6           0       47.579740   85.177993   32.488937
      6          1           0       48.239318   84.354642   32.687138
      7          1           0       46.573729   84.794610   32.504458
      8          1           0       47.706846   85.954908   33.181995
 ---------------------------------------------------------------------
                    Distance matrix (angstroms):
                    1          2          3          4          5
     1  N    0.000000
     2  H    1.040754   0.000000
     3  H    1.033452   1.689731   0.000000
     4  H    1.047152   1.713810   1.700523   0.000000
     5  C    1.467809   2.073855   2.039413   2.066656   0.000000
     6  H    2.057250   2.357281   2.907498   2.377863   1.073421
     7  H    2.059290   2.346842   2.348939   2.934147   1.076699
     8  H    2.095839   2.953169   2.383036   2.408740   1.048848
                    6          7          8
     6  H    0.000000
     7  H    1.732377   0.000000
     8  H    1.757629   1.757641   0.000000
 Symmetry turned off by external request.
 Stoichiometry    CH6N(1+)
 Framework group  C1[X(CH6N)]
 Deg. of freedom    18
 Full point group                 C1      NOp   1
 Rotational constants (GHZ):          84.1999457          21.1517404          21.0811310
 Leave Link  202 at Fri May 22 12:39:25 2026, MaxMem=   131072000 cpu:               0.0 elap:               0.0
 (Enter /afs/math/software/gaussian/g16.A03/g16/l301.exe)
 Standard basis: STO-3G (5D, 7F)
                         Coordinates in L301:                         
 ---------------------------------------------------------------------
 Center     Atomic      Atomic             Coordinates (Angstroms)
 Number     Number       Type             X           Y           Z
 ---------------------------------------------------------------------
      1          7           0       47.848780   85.625365   31.117099
      2          1           0       47.698913   84.844520   30.445541
      3          1           0       47.191511   86.391826   30.896739
      4          1           0       48.833161   85.976650   31.052918
      5          6           0       47.579740   85.177993   32.488937
      6          1           0       48.239318   84.354642   32.687138
      7          1           0       46.573729   84.794610   32.504458
      8          1           0       47.706846   85.954908   33.181995
 ---------------------------------------------------------------------
 FixB: optimizing general contractions.
 Ernie: Thresh=  0.10000D-02 Tol=  0.10000D-05 Strict=F.
 IA=     1 ShT= 0 ShC= 0 NL=   1 NS=   0.
 IA=     1 L=0 SC=0 ISt=    0 NBk=    0 NP=    0 IndPr=    0.
 IA=     1 ShT= 1 ShC= 0 NL=   1 NS=   0.
 IA=     1 L=1 SC=0 ISt=    0 NBk=    0 NP=    0 IndPr=    0.
 IA=     2 ShT= 0 ShC= 0 NL=   1 NS=   0.
 IA=     2 L=0 SC=0 ISt=    0 NBk=    0 NP=    0 IndPr=    0.
 IA=     3 ShT= 0 ShC= 0 NL=   1 NS=   0.
 IA=     3 L=0 SC=0 ISt=    0 NBk=    0 NP=    0 IndPr=    0.
 IA=     4 ShT= 0 ShC= 0 NL=   1 NS=   0.
 IA=     4 L=0 SC=0 ISt=    0 NBk=    0 NP=    0 IndPr=    0.
 IA=     5 ShT= 0 ShC= 0 NL=   1 NS=   0.
 IA=     5 L=0 SC=0 ISt=    0 NBk=    0 NP=    0 IndPr=    0.
 IA=     5 ShT= 1 ShC= 0 NL=   1 NS=   0.
 IA=     5 L=1 SC=0 ISt=    0 NBk=    0 NP=    0 IndPr=    0.
 IA=     6 ShT= 0 ShC= 0 NL=   1 NS=   0.
 IA=     6 L=0 SC=0 ISt=    0 NBk=    0 NP=    0 IndPr=    0.
 IA=     7 ShT= 0 ShC= 0 NL=   1 NS=   0.
 IA=     7 L=0 SC=0 ISt=    0 NBk=    0 NP=    0 IndPr=    0.
 IA=     8 ShT= 0 ShC= 0 NL=   1 NS=   0.
 IA=     8 L=0 SC=0 ISt=    0 NBk=    0 NP=    0 IndPr=    0.
 AO basis set in the form of general basis input (Overlap normalization):
      1 0
 S   3 1.00       0.000000000000
      0.9910616896D+02  0.1543289673D+00
      0.1805231239D+02  0.5353281423D+00
      0.4885660238D+01  0.4446345422D+00
 SP   3 1.00       0.000000000000
      0.3780455879D+01 -0.9996722919D-01  0.1559162750D+00
      0.8784966449D+00  0.3995128261D+00  0.6076837186D+00
      0.2857143744D+00  0.7001154689D+00  0.3919573931D+00
 ****
      2 0
 S   3 1.00       0.000000000000
      0.3425250914D+01  0.1543289673D+00
      0.6239137298D+00  0.5353281423D+00
      0.1688554040D+00  0.4446345422D+00
 ****
      3 0
 S   3 1.00       0.000000000000
      0.3425250914D+01  0.1543289673D+00
      0.6239137298D+00  0.5353281423D+00
      0.1688554040D+00  0.4446345422D+00
 ****
      4 0
 S   3 1.00       0.000000000000
      0.3425250914D+01  0.1543289673D+00
      0.6239137298D+00  0.5353281423D+00
      0.1688554040D+00  0.4446345422D+00
 ****
      5 0
 S   3 1.00       0.000000000000
      0.7161683735D+02  0.1543289673D+00
      0.1304509632D+02  0.5353281423D+00
      0.3530512160D+01  0.4446345422D+00
 SP   3 1.00       0.000000000000
      0.2941249355D+01 -0.9996722919D-01  0.1559162750D+00
      0.6834830964D+00  0.3995128261D+00  0.6076837186D+00
      0.2222899159D+00  0.7001154689D+00  0.3919573931D+00
 ****
      6 0
 S   3 1.00       0.000000000000
      0.3425250914D+01  0.1543289673D+00
      0.6239137298D+00  0.5353281423D+00
      0.1688554040D+00  0.4446345422D+00
 ****
      7 0
 S   3 1.00       0.000000000000
      0.3425250914D+01  0.1543289673D+00
      0.6239137298D+00  0.5353281423D+00
      0.1688554040D+00  0.4446345422D+00
 ****
      8 0
 S   3 1.00       0.000000000000
      0.3425250914D+01  0.1543289673D+00
      0.6239137298D+00  0.5353281423D+00
      0.1688554040D+00  0.4446345422D+00
 ****

 AO basis set (Overlap normalization):
 Atom N1       Shell     1 S   3     bf    1 -     1         90.421089594566        161.808489165919         58.802794900977
      0.9910616896D+02  0.1543289673D+00
      0.1805231239D+02  0.5353281423D+00
      0.4885660238D+01  0.4446345422D+00
 Atom N1       Shell     2 SP   3    bf    2 -     5         90.421089594566        161.808489165919         58.802794900977
      0.3780455879D+01 -0.9996722919D-01  0.1559162750D+00
      0.8784966449D+00  0.3995128261D+00  0.6076837186D+00
      0.2857143744D+00  0.7001154689D+00  0.3919573931D+00
 Atom H2       Shell     3 S   3     bf    6 -     6         90.137882009456        160.332905970183         57.533734204217
      0.3425250914D+01  0.1543289673D+00
      0.6239137298D+00  0.5353281423D+00
      0.1688554040D+00  0.4446345422D+00
 Atom H3       Shell     4 S   3     bf    7 -     7         89.179031194399        163.256890541079         58.386374852168
      0.3425250914D+01  0.1543289673D+00
      0.6239137298D+00  0.5353281423D+00
      0.1688554040D+00  0.4446345422D+00
 Atom H4       Shell     5 S   3     bf    8 -     8         92.281300086792        162.472321607587         58.681510388577
      0.3425250914D+01  0.1543289673D+00
      0.6239137298D+00  0.5353281423D+00
      0.1688554040D+00  0.4446345422D+00
 Atom C5       Shell     6 S   3     bf    9 -     9         89.912677678013        160.963078610120         61.395193008248
      0.7161683735D+02  0.1543289673D+00
      0.1304509632D+02  0.5353281423D+00
      0.3530512160D+01  0.4446345422D+00
 Atom C5       Shell     7 SP   3    bf   10 -    13         89.912677678013        160.963078610120         61.395193008248
      0.2941249355D+01 -0.9996722919D-01  0.1559162750D+00
      0.6834830964D+00  0.3995128261D+00  0.6076837186D+00
      0.2222899159D+00  0.7001154689D+00  0.3919573931D+00
 Atom H6       Shell     8 S   3     bf   14 -    14         91.159099455802        159.407170715733         61.769738615863
      0.3425250914D+01  0.1543289673D+00
      0.6239137298D+00  0.5353281423D+00
      0.1688554040D+00  0.4446345422D+00
 Atom H7       Shell     9 S   3     bf   15 -    15         88.011592409713        160.238589739306         61.424523447428
      0.3425250914D+01  0.1543289673D+00
      0.6239137298D+00  0.5353281423D+00
      0.1688554040D+00  0.4446345422D+00
 Atom H8       Shell    10 S   3     bf   16 -    16         90.152873206802        162.431235182186         62.704882816687
      0.3425250914D+01  0.1543289673D+00
      0.6239137298D+00  0.5353281423D+00
      0.1688554040D+00  0.4446345422D+00
 LdAtmC:  AtmChg=     7.000000     1.000000     1.000000     1.000000     6.000000
 LdAtmC:  AtmChg=     1.000000     1.000000     1.000000
 AtZEff=     -4.5500000     -1.0000000     -1.0000000     -1.0000000     -3.6000000
 AtZEff=     -1.0000000     -1.0000000     -1.0000000
    16 basis functions,    48 primitive gaussians,    16 cartesian basis functions
     9 alpha electrons        9 beta electrons
       nuclear repulsion energy        48.4696618038 Hartrees.
 IS=     1 IAt=     1 ISR=     1 T=0 IP=      1 IndIP=      1 IndIPD=      0 C=  3.454881D+00  0.000000D+00                             NZ=T
 IS=     1 IAt=     1 ISR=     1 T=0 IP=      2 IndIP=      2 IndIPD=      1 C=  3.341410D+00  0.000000D+00                             NZ=T
 IS=     1 IAt=     1 ISR=     1 T=0 IP=      3 IndIP=      3 IndIPD=      2 C=  1.041372D+00  0.000000D+00                             NZ=T
 IS=     2 IAt=     1 ISR=     2 T=1 IP=      1 IndIP=      4 IndIPD=      0 C= -1.931639D-01  1.171553D+00                             NZ=T
 IS=     2 IAt=     1 ISR=     2 T=1 IP=      2 IndIP=      5 IndIPD=      1 C=  2.583723D-01  7.367037D-01                             NZ=T
 IS=     2 IAt=     1 ISR=     2 T=1 IP=      3 IndIP=      6 IndIPD=      2 C=  1.949974D-01  1.167062D-01                             NZ=T
 IS=     3 IAt=     2 ISR=     1 T=0 IP=      1 IndIP=      7 IndIPD=      0 C=  2.769344D-01  0.000000D+00                             NZ=T
 IS=     3 IAt=     2 ISR=     1 T=0 IP=      2 IndIP=      8 IndIPD=      1 C=  2.678389D-01  0.000000D+00                             NZ=T
 IS=     3 IAt=     2 ISR=     1 T=0 IP=      3 IndIP=      9 IndIPD=      2 C=  8.347367D-02  0.000000D+00                             NZ=T
 IS=     4 IAt=     3 ISR=     1 T=0 IP=      1 IndIP=     10 IndIPD=      0 C=  2.769344D-01  0.000000D+00                             NZ=T
 IS=     4 IAt=     3 ISR=     1 T=0 IP=      2 IndIP=     11 IndIPD=      1 C=  2.678389D-01  0.000000D+00                             NZ=T
 IS=     4 IAt=     3 ISR=     1 T=0 IP=      3 IndIP=     12 IndIPD=      2 C=  8.347367D-02  0.000000D+00                             NZ=T
 IS=     5 IAt=     4 ISR=     1 T=0 IP=      1 IndIP=     13 IndIPD=      0 C=  2.769344D-01  0.000000D+00                             NZ=T
 IS=     5 IAt=     4 ISR=     1 T=0 IP=      2 IndIP=     14 IndIPD=      1 C=  2.678389D-01  0.000000D+00                             NZ=T
 IS=     5 IAt=     4 ISR=     1 T=0 IP=      3 IndIP=     15 IndIPD=      2 C=  8.347367D-02  0.000000D+00                             NZ=T
 IS=     6 IAt=     5 ISR=     1 T=0 IP=      1 IndIP=     16 IndIPD=      0 C=  2.707814D+00  0.000000D+00                             NZ=T
 IS=     6 IAt=     5 ISR=     1 T=0 IP=      2 IndIP=     17 IndIPD=      1 C=  2.618880D+00  0.000000D+00                             NZ=T
 IS=     6 IAt=     5 ISR=     1 T=0 IP=      3 IndIP=     18 IndIPD=      2 C=  8.161906D-01  0.000000D+00                             NZ=T
 IS=     7 IAt=     5 ISR=     2 T=1 IP=      1 IndIP=     19 IndIPD=      0 C= -1.600172D-01  8.560445D-01                             NZ=T
 IS=     7 IAt=     5 ISR=     2 T=1 IP=      2 IndIP=     20 IndIPD=      1 C=  2.140359D-01  5.383038D-01                             NZ=T
 IS=     7 IAt=     5 ISR=     2 T=1 IP=      3 IndIP=     21 IndIPD=      2 C=  1.615361D-01  8.527636D-02                             NZ=T
 IS=     8 IAt=     6 ISR=     1 T=0 IP=      1 IndIP=     22 IndIPD=      0 C=  2.769344D-01  0.000000D+00                             NZ=T
 IS=     8 IAt=     6 ISR=     1 T=0 IP=      2 IndIP=     23 IndIPD=      1 C=  2.678389D-01  0.000000D+00                             NZ=T
 IS=     8 IAt=     6 ISR=     1 T=0 IP=      3 IndIP=     24 IndIPD=      2 C=  8.347367D-02  0.000000D+00                             NZ=T
 IS=     9 IAt=     7 ISR=     1 T=0 IP=      1 IndIP=     25 IndIPD=      0 C=  2.769344D-01  0.000000D+00                             NZ=T
 IS=     9 IAt=     7 ISR=     1 T=0 IP=      2 IndIP=     26 IndIPD=      1 C=  2.678389D-01  0.000000D+00                             NZ=T
 IS=     9 IAt=     7 ISR=     1 T=0 IP=      3 IndIP=     27 IndIPD=      2 C=  8.347367D-02  0.000000D+00                             NZ=T
 IS=    10 IAt=     8 ISR=     1 T=0 IP=      1 IndIP=     28 IndIPD=      0 C=  2.769344D-01  0.000000D+00                             NZ=T
 IS=    10 IAt=     8 ISR=     1 T=0 IP=      2 IndIP=     29 IndIPD=      1 C=  2.678389D-01  0.000000D+00                             NZ=T
 IS=    10 IAt=     8 ISR=     1 T=0 IP=      3 IndIP=     30 IndIPD=      2 C=  8.347367D-02  0.000000D+00                             NZ=T
 IExCor=  404 DFT=T Ex=B Corr=P86 ExCW=0 ScaHFX=  0.000000
 ScaDFX=  1.000000  1.000000  1.000000  1.000000 ScalE2=  1.000000  1.000000
 IRadAn=      5 IRanWt=     -1 IRanGd=            0 ICorTp=0 IEmpDi=  4
 NAtoms=    8 NActive=    8 NUniq=    8 SFac= 1.00D+00 NAtFMM=   60 NAOKFM=F Big=F
 Integral buffers will be    131072 words long.
 Raffenetti 2 integral format.
 Two-electron integral symmetry is turned off.
 Background charge distribution read from rwf.
 PtFMM for NChg=        25 BoxLen=    40.00 Levels= 0 LMax=20 SMax=    10.5 ICnFMM=     1:
 Self energy of the charges =        -0.6571595371 a.u.
 MM   energy of the charges =         0.0000000000 a.u.
 Nuclei-charges interaction =        -1.4820095113 a.u.
 Nuclear repulsion after external point charges =       46.3304927554 Hartrees.
 Leave Link  301 at Fri May 22 12:39:26 2026, MaxMem=   131072000 cpu:               0.0 elap:               0.0
 (Enter /afs/math/software/gaussian/g16.A03/g16/l302.exe)
 NPDir=0 NMtPBC=     1 NCelOv=     1 NCel=       1 NClECP=     1 NCelD=      1
         NCelK=      1 NCelE2=     1 NClLst=     1 CellRange=     0.0.
 One-electron integrals computed using PRISM.
 Entering OneElI...
 Calculate overlap and kinetic energy integrals
    NBasis =  16  MinDer = 0  MaxDer = 0
 Requested accuracy = 0.1000D-12
 PrmmSu-InSpLW:  IPartL=    0 NPrtUS=    1 NPrtUL=    1 DoSpLW=F IThBeg=    0 IThEnd=    0 NThAct=    1.
 PrsmSu:  NPrtUS=   1 ThrOK=F IAlg=1 NPAlg=1 LenDen=           0 ISkipM=0 DoSpLW=F IThBeg=    0 IThEnd=    0.
 Prism:   IPart=     0 DynPar=F LinDyn=F Incr=           1.
 PRISM was handed   131062193 working-precision words and    55 shell-pairs
 IPart=  0 NShTot=          55 NBatch=           5 AvBLen=        11.0
 PrSmSu:  NxtVal=              2.
 *** Overlap *** 
                1             2             3             4             5 
      1  0.100000D+01
      2  0.235038D+00  0.100000D+01
      3  0.000000D+00  0.000000D+00  0.100000D+01
      4  0.000000D+00  0.000000D+00  0.000000D+00  0.100000D+01
      5  0.000000D+00  0.000000D+00  0.000000D+00  0.000000D+00  0.100000D+01
      6  0.545753D-01  0.477141D+00 -0.618678D-01 -0.322347D+00 -0.277231D+00
      7  0.555261D-01  0.481621D+00 -0.274897D+00  0.320566D+00 -0.921638D-01
      8  0.537555D-01  0.473232D+00  0.401737D+00  0.143363D+00 -0.261930D-01
      9  0.000000D+00  0.235967D-01 -0.741037D-02 -0.123223D-01  0.377856D-01
     10  0.247468D-01  0.287600D+00 -0.555473D-01 -0.923665D-01  0.283236D+00
     11  0.755386D-02  0.640090D-01  0.140630D+00 -0.259125D-01  0.794590D-01
     12  0.125609D-01  0.106437D+00 -0.259125D-01  0.113124D+00  0.132128D+00
     13 -0.385172D-01 -0.326383D+00  0.794590D-01  0.132128D+00 -0.248949D+00
     14  0.537009D-02  0.906016D-01  0.207333D-01 -0.674614D-01  0.833518D-01
     15  0.534324D-02  0.902450D-01 -0.673899D-01 -0.439077D-01  0.733257D-01
     16  0.488088D-02  0.840535D-01 -0.692354D-02  0.160751D-01  0.100726D+00
                6             7             8             9            10 
      6  0.100000D+01
      7  0.194281D+00  0.100000D+01
      8  0.187327D+00  0.191139D+00  0.100000D+01
      9  0.665203D-02  0.723530D-02  0.677054D-02  0.100000D+01
     10  0.112771D+00  0.119865D+00  0.114225D+00  0.248362D+00  0.100000D+01
     11  0.819883D-02 -0.286305D-01  0.874966D-01  0.000000D+00  0.000000D+00
     12 -0.229422D-01  0.895159D-01  0.557512D-01  0.000000D+00  0.000000D+00
     13 -0.140581D+00 -0.117419D+00 -0.100243D+00  0.000000D+00  0.000000D+00
     14  0.644057D-01  0.221588D-01  0.620474D-01  0.647335D-01  0.500333D+00
     15  0.656308D-01  0.653832D-01  0.209665D-01  0.642399D-01  0.498433D+00
     16  0.201509D-01  0.614664D-01  0.586481D-01  0.685559D-01  0.514670D+00
               11            12            13            14            15 
     11  0.100000D+01
     12  0.000000D+00  0.100000D+01
     13  0.000000D+00  0.000000D+00  0.100000D+01
     14  0.290581D+00 -0.362733D+00  0.873187D-01  0.100000D+01
     15 -0.440825D+00 -0.167995D+00  0.680117D-02  0.182106D+00  0.100000D+01
     16  0.582896D-01  0.356286D+00  0.317830D+00  0.175198D+00  0.175194D+00
               16 
     16  0.100000D+01
 *** Kinetic Energy *** 
                1             2             3             4             5 
      1  0.219908D+02
      2 -0.128416D+00  0.606994D+00
      3  0.000000D+00  0.000000D+00  0.189936D+01
      4  0.000000D+00  0.000000D+00  0.000000D+00  0.189936D+01
      5  0.000000D+00  0.000000D+00  0.000000D+00  0.000000D+00  0.189936D+01
      6 -0.764450D-02  0.111597D+00 -0.380271D-01 -0.198131D+00 -0.170400D+00
      7 -0.730714D-02  0.114413D+00 -0.171133D+00  0.199563D+00 -0.573750D-01
      8 -0.792145D-02  0.109164D+00  0.244172D+00  0.871348D-01 -0.159198D-01
      9 -0.161120D-05 -0.112856D-01  0.237748D-02  0.395338D-02 -0.121228D-01
     10 -0.661856D-02  0.202346D-01 -0.183309D-01 -0.304814D-01  0.934694D-01
     11 -0.184389D-02  0.207210D-01  0.342918D-01 -0.159142D-01  0.487998D-01
     12 -0.306611D-02  0.344559D-01 -0.159142D-01  0.173994D-01  0.811465D-01
     13  0.940204D-02 -0.105657D+00  0.487998D-01  0.811465D-01 -0.204968D+00
     14 -0.201349D-02 -0.167774D-01 -0.565125D-03  0.183879D-02 -0.227191D-02
     15 -0.200953D-02 -0.167759D-01  0.188809D-02  0.123018D-02 -0.205440D-02
     16 -0.194009D-02 -0.167012D-01  0.287827D-03 -0.668277D-03 -0.418739D-02
                6             7             8             9            10 
      6  0.760032D+00
      7 -0.220185D-02  0.760032D+00
      8 -0.321250D-02 -0.266577D-02  0.760032D+00
      9 -0.253379D-02 -0.262581D-02 -0.255261D-02  0.158911D+02
     10 -0.143588D-01 -0.139426D-01 -0.142809D-01 -0.858900D-01  0.472250D+00
     11  0.186479D-03 -0.982112D-03  0.220078D-02  0.000000D+00  0.000000D+00
     12 -0.521810D-03  0.307066D-02  0.140230D-02  0.000000D+00  0.000000D+00
     13 -0.319746D-02 -0.402782D-02 -0.252139D-02  0.000000D+00  0.000000D+00
     14 -0.113163D-01 -0.743219D-02 -0.112496D-01 -0.988430D-02  0.112355D+00
     15 -0.113460D-01 -0.113403D-01 -0.720080D-02 -0.100205D-01  0.111256D+00
     16 -0.703638D-02 -0.112312D-01 -0.111305D-01 -0.870677D-02  0.120803D+00
               11            12            13            14            15 
     11  0.147773D+01
     12  0.000000D+00  0.147773D+01
     13  0.000000D+00  0.000000D+00  0.147773D+01
     14  0.166812D+00 -0.208232D+00  0.501265D-01  0.760032D+00
     15 -0.251736D+00 -0.959346D-01  0.388385D-02 -0.393323D-02  0.760032D+00
     16  0.347904D-01  0.212651D+00  0.189698D+00 -0.483714D-02 -0.483753D-02
               16 
     16  0.760032D+00
 Entering OneElI...
 Calculate potential energy integrals
    NBasis =  16  MinDer = 0  MaxDer = 0
 Requested accuracy = 0.1000D-12
 PrmmSu-InSpLW:  IPartL=    0 NPrtUS=    1 NPrtUL=    1 DoSpLW=F IThBeg=    0 IThEnd=    0 NThAct=    1.
 PrsmSu:  NPrtUS=   1 ThrOK=F IAlg=1 NPAlg=1 LenDen=           0 ISkipM=0 DoSpLW=F IThBeg=    0 IThEnd=    0.
 Prism:   IPart=     0 DynPar=F LinDyn=F Incr=          13.
 PRISM was handed   131061407 working-precision words and    55 shell-pairs
 IPart=  0 NShTot=        1375 NBatch=          55 AvBLen=        25.0
 PrSmSu:  NxtVal=             14.
 ***** Potential Energy ***** 
                1             2             3             4             5 
      1  0.505582D+02
      2  0.646059D+01  0.112049D+02
      3 -0.766914D-02 -0.983490D-01  0.110783D+02
      4 -0.124934D-01 -0.163510D+00  0.135438D-01  0.110898D+02
      5  0.376893D-01  0.491066D+00 -0.390221D-01 -0.653737D-01  0.112760D+02
      6  0.153131D+01  0.447519D+01 -0.567699D+00 -0.283818D+01 -0.222282D+01
      7  0.155852D+01  0.452833D+01 -0.241190D+01  0.271259D+01 -0.622876D+00
      8  0.150798D+01  0.443252D+01  0.342763D+01  0.117786D+01 -0.557548D-01
      9  0.000000D+00  0.514847D+00 -0.162584D+00 -0.270391D+00  0.829089D+00
     10  0.694324D+00  0.298745D+01 -0.579824D+00 -0.966353D+00  0.295879D+01
     11  0.212023D+00  0.686478D+00  0.124987D+01 -0.266011D+00  0.816292D+00
     12  0.352566D+00  0.113835D+01 -0.264926D+00  0.968212D+00  0.135309D+01
     13 -0.108113D+01 -0.349628D+01  0.815037D+00  0.135654D+01 -0.274577D+01
     14  0.150130D+00  0.854987D+00  0.142878D+00 -0.584418D+00  0.795510D+00
     15  0.149376D+00  0.850578D+00 -0.566284D+00 -0.394066D+00  0.712954D+00
     16  0.136370D+00  0.797178D+00 -0.792293D-01  0.898652D-01  0.934365D+00
                6             7             8             9            10 
      6  0.739638D+01
      7  0.157492D+01  0.741779D+01
      8  0.151706D+01  0.154850D+01  0.737622D+01
      9  0.145422D+00  0.158262D+00  0.148030D+00  0.383595D+02
     10  0.102630D+01  0.108801D+01  0.103711D+01  0.536120D+01  0.983844D+01
     11  0.101277D+00 -0.182020D+00  0.715616D+00  0.119754D-01  0.140257D+00
     12 -0.116346D+00  0.757721D+00  0.493688D+00  0.182266D-01  0.213349D+00
     13 -0.128135D+01 -0.110971D+01 -0.967590D+00 -0.569778D-01 -0.670693D+00
     14  0.491750D+00  0.202481D+00  0.476019D+00  0.141766D+01  0.423900D+01
     15  0.498990D+00  0.500043D+00  0.191488D+00  0.140651D+01  0.421178D+01
     16  0.184346D+00  0.471871D+00  0.450912D+00  0.150233D+01  0.436848D+01
               11            12            13            14            15 
     11  0.967335D+01
     12  0.254870D-01  0.971064D+01
     13 -0.602380D-01 -0.938672D-01  0.100001D+02
     14  0.234264D+01 -0.279921D+01  0.469474D+00  0.707907D+01
     15 -0.342911D+01 -0.125795D+01 -0.167460D+00  0.139256D+01  0.704405D+01
     16  0.512809D+00  0.290300D+01  0.230826D+01  0.135369D+01  0.134834D+01
               16 
     16  0.714397D+01
 ****** Core Hamiltonian ****** 
                1             2             3             4             5 
      1 -0.285675D+02
      2 -0.658900D+01 -0.105979D+02
      3  0.766914D-02  0.983490D-01 -0.917892D+01
      4  0.124934D-01  0.163510D+00 -0.135438D-01 -0.919045D+01
      5 -0.376893D-01 -0.491066D+00  0.390221D-01  0.653737D-01 -0.937661D+01
      6 -0.153896D+01 -0.436359D+01  0.529672D+00  0.264004D+01  0.205242D+01
      7 -0.156583D+01 -0.441392D+01  0.224077D+01 -0.251302D+01  0.565501D+00
      8 -0.151590D+01 -0.432336D+01 -0.318345D+01 -0.109073D+01  0.398350D-01
      9 -0.193713D-05 -0.526133D+00  0.164961D+00  0.274344D+00 -0.841212D+00
     10 -0.700943D+00 -0.296722D+01  0.561493D+00  0.935872D+00 -0.286532D+01
     11 -0.213867D+00 -0.665757D+00 -0.121558D+01  0.250097D+00 -0.767493D+00
     12 -0.355632D+00 -0.110390D+01  0.249012D+00 -0.950812D+00 -0.127194D+01
     13  0.109053D+01  0.339062D+01 -0.766237D+00 -0.127539D+01  0.254080D+01
     14 -0.152144D+00 -0.871765D+00 -0.143443D+00  0.586257D+00 -0.797782D+00
     15 -0.151386D+00 -0.867354D+00  0.568172D+00  0.395297D+00 -0.715008D+00
     16 -0.138310D+00 -0.813879D+00  0.795172D-01 -0.905335D-01 -0.938553D+00
                6             7             8             9            10 
      6 -0.663635D+01
      7 -0.157712D+01 -0.665775D+01
      8 -0.152027D+01 -0.155116D+01 -0.661619D+01
      9 -0.147956D+00 -0.160888D+00 -0.150583D+00 -0.224683D+02
     10 -0.104066D+01 -0.110195D+01 -0.105139D+01 -0.544709D+01 -0.936619D+01
     11 -0.101091D+00  0.181038D+00 -0.713416D+00 -0.119754D-01 -0.140257D+00
     12  0.115824D+00 -0.754651D+00 -0.492286D+00 -0.182266D-01 -0.213349D+00
     13  0.127816D+01  0.110568D+01  0.965069D+00  0.569778D-01  0.670693D+00
     14 -0.503066D+00 -0.209913D+00 -0.487269D+00 -0.142754D+01 -0.412664D+01
     15 -0.510336D+00 -0.511383D+00 -0.198688D+00 -0.141653D+01 -0.410052D+01
     16 -0.191382D+00 -0.483103D+00 -0.462042D+00 -0.151104D+01 -0.424767D+01
               11            12            13            14            15 
     11 -0.819563D+01
     12 -0.254870D-01 -0.823291D+01
     13  0.602380D-01  0.938672D-01 -0.852233D+01
     14 -0.217583D+01  0.259098D+01 -0.419348D+00 -0.631904D+01
     15  0.317738D+01  0.116201D+01  0.171344D+00 -0.139649D+01 -0.628402D+01
     16 -0.478019D+00 -0.269035D+01 -0.211857D+01 -0.135853D+01 -0.135318D+01
               16 
     16 -0.638394D+01
 SVDSVc IOpt=   1 NormSV=T IR=1
 SVDSVc V= 2.51D+00 1.98D+00 1.63D+00 1.62D+00 1.36D+00 1.26D+00 1.25D+00 9.84D-01 9.65D-01 4.46D-01
 SVDSVc V= 4.04D-01 4.00D-01 3.55D-01 3.35D-01 2.82D-01 2.10D-01
 TstOVc:  Largest diagonal error= 3.33D-15 IB=1 I=    4.
 TstOVc:  Largest same sym error= 2.39D-15 IB=1 I=    4 J=    3.
 Orthogonalized basis functions: 
                 1             2             3             4             5 
      1   0.746572D-01  0.973695D-01  0.476911D-03  0.306827D-02  0.336425D-01
      2   0.294220D+00  0.264933D+00  0.109039D-02  0.705280D-02  0.428647D-01
      3  -0.145195D-01  0.261397D-01  0.802665D-01  0.397603D+00 -0.100540D+00
      4  -0.181793D-01  0.569195D-01  0.360860D+00 -0.100465D+00 -0.124254D+00
      5   0.553404D-01 -0.152136D+00  0.131302D+00  0.410836D-01  0.574976D+00
      6   0.183987D+00  0.202164D+00 -0.244573D+00 -0.524889D-03 -0.172649D+00
      7   0.187236D+00  0.206636D+00  0.127793D+00 -0.221747D+00 -0.915607D-01
      8   0.181070D+00  0.202469D+00  0.127019D+00  0.231926D+00 -0.106570D+00
      9   0.821334D-01 -0.106620D+00  0.596800D-02  0.434009D-04  0.591675D-01
     10   0.304237D+00 -0.262055D+00  0.105395D-01  0.289889D-03  0.699456D-01
     11   0.112955D-01  0.399173D-01  0.909574D-01  0.445648D+00  0.996508D-01
     12   0.183395D-01  0.767321D-01  0.430041D+00 -0.116231D+00  0.134477D+00
     13  -0.724204D-01 -0.211728D+00  0.174420D+00  0.465654D-01 -0.510073D+00
     14   0.179718D+00 -0.216664D+00 -0.156969D+00  0.254701D+00 -0.664624D-01
     15   0.180659D+00 -0.212636D+00 -0.152964D+00 -0.256229D+00 -0.764024D-01
     16   0.176027D+00 -0.223176D+00  0.306996D+00 -0.662593D-03 -0.132820D+00
                 6             7             8             9            10 
      1  -0.121599D-01  0.439316D-02  0.885782D+00  0.410030D+00 -0.471696D-01
      2  -0.123600D-01  0.545413D-02  0.414814D-01 -0.113212D-01  0.125852D+00
      3   0.169958D+00  0.462771D+00 -0.110465D-01  0.249979D-01 -0.197702D+00
      4   0.475247D+00 -0.188674D+00 -0.180197D-01  0.500746D-01 -0.343955D+00
      5   0.111186D+00  0.479501D-01  0.612825D-01 -0.133258D+00  0.852243D+00
      6  -0.350453D+00  0.379849D-01 -0.115529D+00 -0.487319D-01  0.197911D+00
      7   0.159378D+00 -0.332615D+00 -0.108361D+00 -0.437931D-01  0.286761D+00
      8   0.230390D+00  0.286380D+00 -0.113074D+00 -0.455903D-01  0.318824D+00
      9  -0.163231D-01  0.462085D-02 -0.399698D+00  0.894558D+00  0.724299D-01
     10  -0.138850D-01  0.432488D-02 -0.247275D-01 -0.928238D-02 -0.173726D+00
     11  -0.142777D+00 -0.395548D+00 -0.253862D-01 -0.129241D-01 -0.202023D+00
     12  -0.369921D+00  0.154378D+00 -0.438617D-01 -0.289970D-01 -0.383645D+00
     13  -0.841893D-01 -0.474111D-01  0.122708D+00  0.461414D-01  0.860912D+00
     14   0.141902D+00 -0.311867D+00  0.543593D-01 -0.107719D+00 -0.251551D+00
     15   0.212059D+00  0.270272D+00  0.549951D-01 -0.108446D+00 -0.263099D+00
     16  -0.304090D+00  0.333237D-01  0.592508D-01 -0.118680D+00 -0.149513D+00
                11            12            13            14            15 
      1   0.916022D-02 -0.959134D-02  0.695770D-02  0.213762D-01 -0.302660D+00
      2  -0.270928D-01  0.307254D-01 -0.252845D-01 -0.845495D-01  0.136710D+01
      3  -0.815396D+00  0.407853D+00 -0.404367D+00 -0.660191D-01 -0.461094D-02
      4  -0.330838D+00 -0.814743D+00  0.870042D-01 -0.353975D+00  0.719326D-01
      5  -0.339018D+00 -0.266987D+00 -0.400884D-01 -0.475905D-01 -0.215912D+00
      6  -0.601199D+00 -0.791589D+00 -0.476724D-03 -0.176639D+00 -0.570661D+00
      7  -0.360413D+00  0.860190D+00 -0.241733D+00  0.187427D+00 -0.597802D+00
      8   0.926983D+00 -0.156269D+00  0.276179D+00  0.157823D+00 -0.531407D+00
      9  -0.670655D-02 -0.432755D-02  0.258237D-02  0.180616D-01 -0.849869D-01
     10   0.161418D-01  0.123207D-01 -0.864751D-02 -0.561528D-01  0.405959D+00
     11  -0.241728D+00  0.150097D+00  0.101350D+01  0.168609D+00 -0.506998D-01
     12  -0.384550D-01 -0.197588D+00 -0.223208D+00  0.996838D+00 -0.514918D-01
     13  -0.146903D+00 -0.888383D-01  0.121134D+00  0.435418D+00  0.419762D+00
     14   0.167366D+00 -0.281499D+00 -0.814947D+00  0.560940D+00 -0.216694D+00
     15  -0.302117D+00  0.801723D-01  0.866558D+00  0.487952D+00 -0.201028D+00
     16   0.178263D+00  0.219567D+00 -0.344473D-01 -0.992272D+00 -0.355882D+00
                16 
      1   0.135667D+00
      2  -0.695970D+00
      3   0.556868D-01
      4   0.679657D-01
      5  -0.241571D+00
      6   0.176012D+00
      7   0.185728D+00
      8   0.168504D+00
      9  -0.319977D+00
     10   0.163711D+01
     11  -0.881850D-02
     12  -0.220106D-01
     13   0.637848D-01
     14  -0.646859D+00
     15  -0.638237D+00
     16  -0.697209D+00
 NBasis=    16 RedAO= T EigKep=  2.10D-01  NBF=    16
 NBsUse=    16 1.00D-06 EigRej= -1.00D+00 NBFU=    16
 Precomputing XC quadrature grid using
 IXCGrd= 4 IRadAn=           5 IRanWt=          -1 IRanGd=           0 AccXCQ= 0.00D+00.
 SetAtRh:  ITypeU=  23 NETotI=       0 ICharg=  1 NETot=       0.
 StAtR1:  I=    1 I1=    1 IA=  7 C=   7.0 OKShel=TTT
                                                  SSP
                                                  223
 StAtR1:  I=    2 I1=    2 IA=  1 C=   1.0 OKShel=T
                                                  S
                                                  1
 StAtR1:  I=    3 I1=    3 IA=  1 C=   1.0 OKShel=T
                                                  S
                                                  1
 StAtR1:  I=    4 I1=    4 IA=  1 C=   1.0 OKShel=T
                                                  S
                                                  1
 StAtR1:  I=    5 I1=    5 IA=  6 C=   6.0 OKShel=TTT
                                                  SSP
                                                  222
 StAtR1:  I=    6 I1=    6 IA=  1 C=   1.0 OKShel=T
                                                  S
                                                  1
 StAtR1:  I=    7 I1=    7 IA=  1 C=   1.0 OKShel=T
                                                  S
                                                  1
 StAtR1:  I=    8 I1=    8 IA=  1 C=   1.0 OKShel=T
                                                  S
                                                  1
          I=    1 IA=  7 I1=    1 NAtG= 0 NE=   7.000 C=   0.000 Err=-7.00D+00
          I=    2 IA=  1 I1=    2 NAtG= 0 NE=   1.000 C=   0.000 Err=-1.00D+00
          I=    3 IA=  1 I1=    3 NAtG= 0 NE=   1.000 C=   0.000 Err=-1.00D+00
          I=    4 IA=  1 I1=    4 NAtG= 0 NE=   1.000 C=   0.000 Err=-1.00D+00
          I=    5 IA=  6 I1=    5 NAtG= 0 NE=   6.000 C=   0.000 Err=-6.00D+00
          I=    6 IA=  1 I1=    6 NAtG= 0 NE=   1.000 C=   0.000 Err=-1.00D+00
          I=    7 IA=  1 I1=    7 NAtG= 0 NE=   1.000 C=   0.000 Err=-1.00D+00
          I=    8 IA=  1 I1=    8 NAtG= 0 NE=   1.000 C=   0.000 Err=-1.00D+00
 Generated NRdTot=       0 NPtTot=           0 NUsed=           0 NTot=          32
 NSgBfM=    16    16    16    16    16 MxSgAt=     8 MxSgA2=     8.
 IGWInf( 1) =          32 (NGWInf)
 IGWInf( 2) =           8 (NAtomA)
 IGWInf( 3) =           5 (IRadAn)
 IGWInf( 4) =          -1 (IRanWt)
 IGWInf( 5) =           0 (IRanGd)
 IGWInf( 6) =           2 (IRType)
 IGWInf( 7) =           0 (NRdTot)
 IGWInf( 8) =           0 (NGWTot)
 IGWInf( 9) =      173132 (LGWBtD)
 IGWInf(10) =           0 (NAtBtD)
 IGWInf(11) =           0 (NIRBtD)
 IGWInf(12) =           0 (NRRBtD)
 IGWInf(13) =           1 (NClRep)
 IGWInf(14) =           0 (ICntr3)
 IGWInf(15) =           0 (IPFlag)
 IGWInf(16) =           0 (IGet)  
 IGWInf(17) =           0         
 IGWInf(18) =          16         
 IGWInf(19) =          16         
 IGWInf(20) =          16         
 IGWInf(21) =          16         
 IGWInf(22) =          16         
 IGWInf(23) =           8         
 IGWInf(24) =           8         
 IGWInf(25) =           0         
 IGWInf(26) =           0         
 IGWInf(27) =           0         
 IGWInf(28) =           0         
 IGWInf(29) =           0         
 IGWInf(30) =           0         
 IGWInf(31) =           0         
 IGWInf(32) =           0         
 IAtBtD: 
              1            2            3            4            5
              6            7            8
 Leave Link  302 at Fri May 22 12:39:26 2026, MaxMem=   131072000 cpu:               0.1 elap:               0.1
 (Enter /afs/math/software/gaussian/g16.A03/g16/l303.exe)
 DipDrv:  MaxL=1.
 DipPsm:  J= 1 NJ= 4 MaxL=1 MMat= 4 MaxMat= 4.
 DipInt: DoE/N= T F RetVal/Mat= F T Init=T NMatP=  4 IDeriv=0 Min/MaxMlt=  0  1
 Entering OneElI...
 Multipole integrals L=0 to 1 MinM= 0 MaxM= 3.
 Requested accuracy = 0.1000D-12
 PrmmSu-InSpLW:  IPartL=    0 NPrtUS=    1 NPrtUL=    1 DoSpLW=F IThBeg=    0 IThEnd=    0 NThAct=    1.
 PrsmSu:  NPrtUS=   1 ThrOK=F IAlg=1 NPAlg=1 LenDen=           0 ISkipM=0 DoSpLW=F IThBeg=    0 IThEnd=    0.
 Prism:   IPart=     0 DynPar=F LinDyn=F Incr=           1.
 PRISM was handed   131062703 working-precision words and    55 shell-pairs
 IPart=  0 NShTot=          55 NBatch=           6 AvBLen=         9.2
 PrSmSu:  NxtVal=              2.
 Multipole matrices IBuc=  518 IX=    1 IJ=           1:
                1             2             3             4             5 
      1  0.904211D+02
      2  0.212524D+02  0.904211D+02
      3  0.579343D-01  0.739815D+00  0.904211D+02
      4  0.000000D+00  0.000000D+00  0.000000D+00  0.904211D+02
      5  0.000000D+00  0.000000D+00  0.000000D+00  0.000000D+00  0.904211D+02
      6  0.493400D+01  0.430791D+02 -0.525877D+01 -0.291035D+02 -0.250302D+02
      7  0.501734D+01  0.432629D+02 -0.243637D+02  0.287962D+02 -0.827901D+01
      8  0.486550D+01  0.432101D+02  0.370054D+02  0.130900D+02 -0.239158D+01
      9  0.248293D-05  0.212237D+01 -0.664976D+00 -0.110837D+01  0.339873D+01
     10  0.223717D+01  0.259404D+02 -0.480896D+01 -0.833259D+01  0.255514D+02
     11  0.684007D+00  0.595696D+01  0.126906D+02 -0.239701D+01  0.735029D+01
     12  0.113548D+01  0.959741D+01 -0.226495D+01  0.102029D+02  0.119160D+02
     13 -0.348188D+01 -0.294299D+02  0.694533D+01  0.119160D+02 -0.224508D+02
     14  0.485672D+00  0.821971D+01  0.194546D+01 -0.612049D+01  0.756215D+01
     15  0.482808D+00  0.807095D+01 -0.596230D+01 -0.392652D+01  0.655729D+01
     16  0.441301D+00  0.759103D+01 -0.565392D+00  0.145176D+01  0.909665D+01
                6             7             8             9            10 
      6  0.901379D+02
      7  0.174189D+02  0.891790D+02
      8  0.170861D+02  0.173421D+02  0.922813D+02
      9  0.598156D+00  0.650356D+00  0.609329D+00  0.899127D+02
     10  0.101517D+02  0.107352D+02  0.103996D+02  0.223309D+02  0.899127D+02
     11  0.819081D+00 -0.247825D+01  0.804690D+01  0.718555D-01  0.838744D+00
     12 -0.206523D+01  0.801754D+01  0.507505D+01  0.000000D+00  0.000000D+00
     13 -0.126549D+02 -0.105167D+02 -0.912515D+01  0.000000D+00  0.000000D+00
     14  0.583828D+01  0.199804D+01  0.569100D+01  0.582559D+01  0.453138D+02
     15  0.584605D+01  0.579264D+01  0.189006D+01  0.576810D+01  0.443179D+02
     16  0.181651D+01  0.551144D+01  0.534971D+01  0.616513D+01  0.463404D+02
               11            12            13            14            15 
     11  0.899127D+02
     12  0.000000D+00  0.899127D+02
     13  0.000000D+00  0.000000D+00  0.899127D+02
     14  0.266730D+02 -0.328455D+02  0.790673D+01  0.911591D+02
     15 -0.388479D+02 -0.149416D+02  0.604899D+00  0.163140D+02  0.880116D+02
     16  0.561973D+01  0.320784D+02  0.286160D+02  0.158827D+02  0.156067D+02
               16 
     16  0.901529D+02
 Multipole matrices IBuc=  518 IX=    2 IJ=           1:
                1             2             3             4             5 
      1  0.161808D+03
      2  0.380311D+02  0.161808D+03
      3  0.000000D+00  0.000000D+00  0.161808D+03
      4  0.579343D-01  0.739815D+00  0.000000D+00  0.161808D+03
      5  0.000000D+00  0.000000D+00  0.000000D+00  0.000000D+00  0.161808D+03
      6  0.882681D+01  0.768693D+02 -0.996727D+01 -0.516050D+02 -0.446636D+02
      7  0.898856D+01  0.782638D+02 -0.446704D+02  0.524217D+02 -0.149765D+02
      8  0.869983D+01  0.767229D+02  0.651314D+02  0.235670D+02 -0.424652D+01
      9  0.444394D-05  0.379940D+01 -0.119323D+01 -0.198259D+01  0.608429D+01
     10  0.400348D+01  0.464285D+02 -0.896873D+01 -0.147115D+02  0.457317D+02
     11  0.122199D+01  0.103305D+02  0.227011D+02 -0.413941D+01  0.128260D+02
     12  0.203313D+01  0.173632D+02 -0.421883D+01  0.182732D+02  0.215119D+02
     13 -0.623093D+01 -0.526751D+02  0.128260D+02  0.211069D+02 -0.401833D+02
     14  0.868592D+00  0.145709D+02  0.333427D+01 -0.107845D+02  0.134044D+02
     15  0.864365D+00  0.145444D+02 -0.108606D+02 -0.701202D+01  0.118172D+02
     16  0.789846D+00  0.136219D+02 -0.112205D+01  0.266507D+01  0.163240D+02
                6             7             8             9            10 
      6  0.160333D+03
      7  0.314337D+02  0.163257D+03
      8  0.302351D+02  0.311298D+02  0.162472D+03
      9  0.107058D+01  0.116521D+01  0.109017D+01  0.160963D+03
     10  0.181181D+02  0.194256D+02  0.184683D+02  0.399772D+02  0.160963D+03
     11  0.131727D+01 -0.463953D+01  0.141460D+02  0.000000D+00  0.000000D+00
     12 -0.360499D+01  0.145920D+02  0.909565D+01  0.718555D-01  0.838744D+00
     13 -0.225866D+02 -0.190276D+02 -0.162068D+02  0.000000D+00  0.000000D+00
     14  0.102965D+02  0.357492D+01  0.998589D+01  0.104132D+02  0.801263D+02
     15  0.105197D+02  0.105756D+02  0.338307D+01  0.103372D+02  0.800397D+02
     16  0.325200D+01  0.100094D+02  0.952749D+01  0.110416D+02  0.832404D+02
               11            12            13            14            15 
     11  0.160963D+03
     12  0.000000D+00  0.160963D+03
     13  0.000000D+00  0.000000D+00  0.160963D+03
     14  0.465416D+02 -0.577371D+02  0.139856D+02  0.159407D+03
     15 -0.707933D+02 -0.266194D+02  0.109222D+01  0.291047D+02  0.160239D+03
     16  0.942630D+01  0.579884D+02  0.513979D+02  0.281926D+02  0.282650D+02
               16 
     16  0.162431D+03
 Multipole matrices IBuc=  518 IX=    3 IJ=           1:
                1             2             3             4             5 
      1  0.588028D+02
      2  0.138209D+02  0.588028D+02
      3  0.000000D+00  0.000000D+00  0.588028D+02
      4  0.000000D+00  0.000000D+00  0.000000D+00  0.588028D+02
      5  0.579343D-01  0.739815D+00  0.000000D+00  0.000000D+00  0.588028D+02
      6  0.320579D+01  0.277681D+02 -0.360062D+01 -0.187601D+02 -0.158074D+02
      7  0.326395D+01  0.282248D+02 -0.161102D+02  0.187866D+02 -0.507105D+01
      8  0.316066D+01  0.278000D+02  0.236001D+02  0.842189D+01 -0.121438D+01
      9  0.164844D-05  0.144501D+01 -0.453629D+00 -0.754314D+00  0.231463D+01
     10  0.145752D+01  0.172418D+02 -0.332548D+01 -0.552976D+01  0.171587D+02
     11  0.445077D+00  0.384591D+01  0.843494D+01 -0.155491D+01  0.481130D+01
     12  0.740094D+00  0.639515D+01 -0.155491D+01  0.678446D+01  0.800045D+01
     13 -0.226830D+01 -0.194250D+02  0.473188D+01  0.786839D+01 -0.149786D+02
     14  0.316189D+00  0.543781D+01  0.124457D+01 -0.404954D+01  0.506782D+01
     15  0.314561D+00  0.540360D+01 -0.403562D+01 -0.262939D+01  0.445525D+01
     16  0.287501D+00  0.507620D+01 -0.418194D+00  0.970964D+00  0.614388D+01
                6             7             8             9            10 
      6  0.575337D+02
      7  0.112605D+02  0.583864D+02
      8  0.108852D+02  0.111881D+02  0.586815D+02
      9  0.407488D+00  0.443435D+00  0.415024D+00  0.613952D+02
     10  0.671561D+01  0.718621D+01  0.686466D+01  0.152483D+02  0.613952D+02
     11  0.488442D+00 -0.171702D+01  0.525984D+01  0.000000D+00  0.000000D+00
     12 -0.136677D+01  0.536840D+01  0.335147D+01  0.000000D+00  0.000000D+00
     13 -0.829403D+01 -0.695573D+01 -0.594403D+01  0.718555D-01  0.838744D+00
     14  0.384191D+01  0.133126D+01  0.373684D+01  0.397590D+01  0.308164D+02
     15  0.390366D+01  0.391681D+01  0.125910D+01  0.394414D+01  0.306090D+02
     16  0.121146D+01  0.372152D+01  0.355954D+01  0.421494D+01  0.319530D+02
               11            12            13            14            15 
     11  0.613952D+02
     12  0.000000D+00  0.613952D+02
     13  0.000000D+00  0.000000D+00  0.613952D+02
     14  0.178960D+02 -0.223395D+02  0.573845D+01  0.617697D+02
     15 -0.270712D+02 -0.103166D+02  0.777003D+00  0.112172D+02  0.614245D+02
     16  0.361780D+01  0.221132D+02  0.200980D+02  0.109038D+02  0.108734D+02
               16 
     16  0.627049D+02
 Fermi contact integrals: 
                 1             2             3             4             5 
      1   0.783766D+01  0.000000D+00  0.000000D+00  0.000000D+00  0.000000D+00
      2   0.260206D+00  0.732139D-01  0.746400D-01  0.719854D-01  0.219449D-01
      3   0.000000D+00 -0.179219D-01 -0.808365D-01  0.114864D+00 -0.702093D-02
      4   0.000000D+00 -0.933778D-01  0.942658D-01  0.409902D-01 -0.116747D-01
      5   0.000000D+00 -0.803087D-01 -0.271017D-01 -0.748906D-02  0.357998D-01
      6   0.674166D-01  0.628247D+00  0.153850D-01  0.145883D-01  0.625941D-02
      7   0.686381D-01  0.153850D-01  0.628247D+00  0.150232D-01  0.682282D-02
      8   0.663650D-01  0.145883D-01  0.150232D-01  0.628247D+00  0.637386D-02
      9   0.000000D+00  0.000000D+00  0.000000D+00  0.000000D+00  0.614289D+01
     10   0.303230D-01  0.532150D-02  0.595663D-02  0.544922D-02  0.215555D+00
     11   0.926360D-02  0.635304D-03 -0.231917D-02  0.684371D-02  0.000000D+00
     12   0.154039D-01 -0.177772D-02  0.725108D-02  0.436068D-02  0.000000D+00
     13  -0.472352D-01 -0.108932D-01 -0.951132D-02 -0.784069D-02  0.000000D+00
     14   0.652601D-02  0.292770D-02  0.510227D-03  0.276045D-02  0.622248D-01
     15   0.649277D-02  0.301578D-02  0.299791D-02  0.464511D-03  0.617278D-01
     16   0.592040D-02  0.434180D-03  0.271972D-02  0.252491D-02  0.660890D-01
                 6             7             8 
      1   0.000000D+00  0.000000D+00  0.000000D+00
      2   0.259852D-02  0.257635D-02  0.220644D-02
      3   0.114850D-02 -0.371767D-02 -0.354357D-03
      4  -0.373697D-02 -0.242223D-02  0.822747D-03
      5   0.461721D-02  0.404512D-02  0.515528D-02
      6   0.292770D-02  0.301578D-02  0.434180D-03
      7   0.510227D-03  0.299791D-02  0.271972D-02
      8   0.276045D-02  0.464511D-03  0.252491D-02
      9   0.000000D+00  0.000000D+00  0.000000D+00
     10   0.775753D-01  0.769950D-01  0.820553D-01
     11   0.828924D-01 -0.125019D+00  0.173760D-01
     12  -0.103475D+00 -0.476437D-01  0.106208D+00
     13   0.249089D-01  0.192882D-02  0.947442D-01
     14   0.628247D+00  0.139995D-01  0.132327D-01
     15   0.139995D-01  0.628247D+00  0.132324D-01
     16   0.132327D-01  0.132324D-01  0.628247D+00
 Leave Link  303 at Fri May 22 12:39:26 2026, MaxMem=   131072000 cpu:               0.0 elap:               0.0
 (Enter /afs/math/software/gaussian/g16.A03/g16/l401.exe)
 Initial guess from the checkpoint file:  "test.2.chk"
 B after Tr=    -0.102959   -0.129486    0.522342
         Rot=    0.999997    0.000200   -0.002510   -0.000638 Ang=   0.30 deg.
 Guess basis will be translated and rotated to current coordinates.
 JPrj=2 DoOrth=T DoCkMO=T.
 Leave Link  401 at Fri May 22 12:39:26 2026, MaxMem=   131072000 cpu:               0.0 elap:               0.1
 (Enter /afs/math/software/gaussian/g16.A03/g16/l502.exe)
 Keep J ints in memory in canonical form, NReq=871357.
 FoFCou: FMM=F IPFlag=           0 FMFlag=           0 FMFlg1=           0
         NFxFlg=           0 DoJE=F BraDBF=F KetDBF=F FulRan=T
         wScrn=  0.000000 ICntrl=       600 IOpCl=  0 I1Cent=           0 NGrid=           0
         NMat0=    1 NMatS0=    136 NMatT0=    0 NMatD0=    1 NMtDS0=    0 NMtDT0=    0
 Symmetry not used in FoFCou.
 Two-electron integral symmetry not used.
 Closed shell SCF:
 Using DIIS extrapolation, IDIIS=  1040.
 NGot=   131072000 LenX=   131061156 LenY=   131060274
 Requested convergence on RMS density matrix=1.00D-08 within 128 cycles.
 Requested convergence on MAX density matrix=1.00D-06.
 Requested convergence on             energy=1.00D-06.
 No special actions if energy rises.

 Cycle   1  Pass 1  IDiag  1:
 E= -95.7717848072623    
 DIIS: error= 2.59D-03 at cycle   1 NSaved=   1.
 NSaved= 1 IEnMin= 1 EnMin= -95.7717848072623     IErMin= 1 ErrMin= 2.59D-03
 ErrMax= 2.59D-03  0.00D+00 EMaxC= 1.00D-01 BMatC= 3.37D-04 BMatP= 3.37D-04
 IDIUse=3 WtCom= 9.74D-01 WtEn= 2.59D-02
 Coeff-Com:  0.100D+01
 Coeff-En:   0.100D+01
 Coeff:      0.100D+01
 Gap=     0.526 Goal=   None    Shift=    0.000
 GapD=    0.526 DampG=2.000 DampE=1.000 DampFc=2.0000 IDamp=-1.
 RMSDP=2.35D-03 MaxDP=1.20D-02              OVMax= 0.00D+00

 Cycle   2  Pass 1  IDiag  1:
 E= -95.7718962945351     Delta-E=       -0.000111487273 Rises=F Damp=F
 DIIS: error= 2.31D-03 at cycle   2 NSaved=   2.
 NSaved= 2 IEnMin= 2 EnMin= -95.7718962945351     IErMin= 2 ErrMin= 2.31D-03
 ErrMax= 2.31D-03  0.00D+00 EMaxC= 1.00D-01 BMatC= 2.02D-04 BMatP= 3.37D-04
 IDIUse=3 WtCom= 9.77D-01 WtEn= 2.31D-02
 Coeff-Com:  0.422D+00 0.578D+00
 Coeff-En:   0.373D+00 0.627D+00
 Coeff:      0.421D+00 0.579D+00
 Gap=     0.521 Goal=   None    Shift=    0.000
 RMSDP=1.33D-03 MaxDP=7.50D-03 DE=-1.11D-04 OVMax= 0.00D+00

 Cycle   3  Pass 1  IDiag  1:
 E= -95.7721107233944     Delta-E=       -0.000214428859 Rises=F Damp=F
 DIIS: error= 7.39D-04 at cycle   3 NSaved=   3.
 NSaved= 3 IEnMin= 3 EnMin= -95.7721107233944     IErMin= 3 ErrMin= 7.39D-04
 ErrMax= 7.39D-04  0.00D+00 EMaxC= 1.00D-01 BMatC= 1.50D-05 BMatP= 2.02D-04
 IDIUse=3 WtCom= 9.93D-01 WtEn= 7.39D-03
 Coeff-Com:  0.238D-01 0.219D+00 0.757D+00
 Coeff-En:   0.000D+00 0.000D+00 0.100D+01
 Coeff:      0.236D-01 0.217D+00 0.759D+00
 Gap=     0.522 Goal=   None    Shift=    0.000
 RMSDP=3.16D-04 MaxDP=1.94D-03 DE=-2.14D-04 OVMax= 0.00D+00

 Cycle   4  Pass 1  IDiag  1:
 E= -95.7721262971321     Delta-E=       -0.000015573738 Rises=F Damp=F
 DIIS: error= 2.68D-04 at cycle   4 NSaved=   4.
 NSaved= 4 IEnMin= 4 EnMin= -95.7721262971321     IErMin= 4 ErrMin= 2.68D-04
 ErrMax= 2.68D-04  0.00D+00 EMaxC= 1.00D-01 BMatC= 9.71D-07 BMatP= 1.50D-05
 IDIUse=3 WtCom= 9.97D-01 WtEn= 2.68D-03
 Coeff-Com:  0.476D-02 0.982D-01 0.386D+00 0.511D+00
 Coeff-En:   0.000D+00 0.000D+00 0.000D+00 0.100D+01
 Coeff:      0.475D-02 0.979D-01 0.385D+00 0.513D+00
 Gap=     0.522 Goal=   None    Shift=    0.000
 RMSDP=7.84D-05 MaxDP=4.29D-04 DE=-1.56D-05 OVMax= 0.00D+00

 Cycle   5  Pass 1  IDiag  1:
 E= -95.7721274430202     Delta-E=       -0.000001145888 Rises=F Damp=F
 DIIS: error= 1.35D-05 at cycle   5 NSaved=   5.
 NSaved= 5 IEnMin= 5 EnMin= -95.7721274430202     IErMin= 5 ErrMin= 1.35D-05
 ErrMax= 1.35D-05  0.00D+00 EMaxC= 1.00D-01 BMatC= 4.69D-09 BMatP= 9.71D-07
 IDIUse=1 WtCom= 1.00D+00 WtEn= 0.00D+00
 Coeff-Com:  0.596D-03 0.216D-01 0.888D-01 0.146D+00 0.743D+00
 Coeff:      0.596D-03 0.216D-01 0.888D-01 0.146D+00 0.743D+00
 Gap=     0.522 Goal=   None    Shift=    0.000
 RMSDP=7.13D-06 MaxDP=3.69D-05 DE=-1.15D-06 OVMax= 0.00D+00

 Cycle   6  Pass 1  IDiag  1:
 E= -95.7721274500472     Delta-E=       -0.000000007027 Rises=F Damp=F
 DIIS: error= 6.67D-07 at cycle   6 NSaved=   6.
 NSaved= 6 IEnMin= 6 EnMin= -95.7721274500472     IErMin= 6 ErrMin= 6.67D-07
 ErrMax= 6.67D-07  0.00D+00 EMaxC= 1.00D-01 BMatC= 1.16D-11 BMatP= 4.69D-09
 IDIUse=1 WtCom= 1.00D+00 WtEn= 0.00D+00
 Coeff-Com:  0.911D-04 0.373D-02 0.156D-01 0.259D-01 0.148D+00 0.807D+00
 Coeff:      0.911D-04 0.373D-02 0.156D-01 0.259D-01 0.148D+00 0.807D+00
 Gap=     0.522 Goal=   None    Shift=    0.000
 RMSDP=4.39D-07 MaxDP=2.07D-06 DE=-7.03D-09 OVMax= 0.00D+00

 Cycle   7  Pass 1  IDiag  1:
 E= -95.7721274500690     Delta-E=       -0.000000000022 Rises=F Damp=F
 DIIS: error= 4.60D-08 at cycle   7 NSaved=   7.
 NSaved= 7 IEnMin= 7 EnMin= -95.7721274500690     IErMin= 7 ErrMin= 4.60D-08
 ErrMax= 4.60D-08  0.00D+00 EMaxC= 1.00D-01 BMatC= 8.44D-14 BMatP= 1.16D-11
 IDIUse=1 WtCom= 1.00D+00 WtEn= 0.00D+00
 Coeff-Com:  0.266D-05 0.138D-03 0.588D-03 0.968D-03 0.730D-02 0.993D-01
 Coeff-Com:  0.892D+00
 Coeff:      0.266D-05 0.138D-03 0.588D-03 0.968D-03 0.730D-02 0.993D-01
 Coeff:      0.892D+00
 Gap=     0.522 Goal=   None    Shift=    0.000
 RMSDP=3.90D-08 MaxDP=2.83D-07 DE=-2.18D-11 OVMax= 0.00D+00

 Cycle   8  Pass 1  IDiag  1:
 E= -95.7721274500690     Delta-E=       -0.000000000000 Rises=F Damp=F
 DIIS: error= 4.07D-09 at cycle   8 NSaved=   8.
 NSaved= 8 IEnMin= 8 EnMin= -95.7721274500690     IErMin= 8 ErrMin= 4.07D-09
 ErrMax= 4.07D-09  0.00D+00 EMaxC= 1.00D-01 BMatC= 7.26D-16 BMatP= 8.44D-14
 IDIUse=1 WtCom= 1.00D+00 WtEn= 0.00D+00
 Coeff-Com:  0.668D-07 0.671D-05 0.294D-04 0.449D-04 0.593D-03 0.142D-01
 Coeff-Com:  0.168D+00 0.818D+00
 Coeff:      0.668D-07 0.671D-05 0.294D-04 0.449D-04 0.593D-03 0.142D-01
 Coeff:      0.168D+00 0.818D+00
 Gap=     0.522 Goal=   None    Shift=    0.000
 RMSDP=3.55D-09 MaxDP=1.86D-08 DE=-8.53D-14 OVMax= 0.00D+00

 SCF Done:  E(RB-P86) =  -95.7721274501     A.U. after    8 cycles
            NFock=  8  Conv=0.36D-08     -V/T= 2.0327
 KE= 9.273984267385D+01 PE=-3.085727468774D+02 EE= 7.373028399814D+01
 Leave Link  502 at Fri May 22 12:39:29 2026, MaxMem=   131072000 cpu:               2.8 elap:               2.8
 (Enter /afs/math/software/gaussian/g16.A03/g16/l601.exe)
 Copying SCF densities to generalized density rwf, IOpCl= 0 IROHF=0.

 **********************************************************************

            Population analysis using the SCF density.

 **********************************************************************

 Alpha  occ. eigenvalues --  -14.22269  -9.98047  -1.08880  -0.80459  -0.69749
 Alpha  occ. eigenvalues --   -0.69109  -0.59469  -0.52504  -0.49592
 Alpha virt. eigenvalues --    0.02607   0.06164   0.07221   0.08551   0.23093
 Alpha virt. eigenvalues --    0.24020   0.27924
     Molecular Orbital Coefficients:
                           1         2         3         4         5
                           O         O         O         O         O
     Eigenvalues --   -14.22269  -9.98047  -1.08880  -0.80459  -0.69749
   1 1   N  1S          0.99195   0.00085  -0.22604   0.05727  -0.00282
   2        2S          0.03966  -0.00708   0.77115  -0.23176   0.01230
   3        2PX        -0.00016   0.00103  -0.00206  -0.05363   0.42829
   4        2PY         0.00006   0.00175  -0.00629  -0.09304   0.43478
   5        2PZ         0.00005  -0.00542   0.00918   0.33108   0.21039
   6 2   H  1S         -0.00770  -0.00029   0.10162  -0.11078  -0.31150
   7 3   H  1S         -0.00777  -0.00042   0.09304  -0.09107   0.00505
   8 4   H  1S         -0.00760  -0.00038   0.09885  -0.09260   0.32163
   9 5   C  1S          0.00060   0.99003  -0.07537  -0.20621   0.00778
  10        2S         -0.00649   0.04788   0.17005   0.60079  -0.02521
  11        2PX        -0.00097   0.00016   0.01842   0.02485   0.11591
  12        2PY        -0.00154  -0.00002   0.02366   0.01425   0.12886
  13        2PZ         0.00498  -0.00030  -0.07596  -0.02030   0.06850
  14 6   H  1S          0.00057  -0.00998   0.02106   0.14462  -0.01484
  15 7   H  1S          0.00058  -0.00985   0.01933   0.12821  -0.07655
  16 8   H  1S          0.00051  -0.01027   0.02430   0.17686   0.07666
                           6         7         8         9        10
                           O         O         O         O         V
     Eigenvalues --    -0.69109  -0.59469  -0.52504  -0.49592   0.02607
   1 1   N  1S          0.00337  -0.02977  -0.00726  -0.00230  -0.19521
   2        2S         -0.01414   0.13818   0.03505   0.01058   1.29034
   3        2PX         0.48642  -0.07834  -0.05333  -0.20008   0.19358
   4        2PY        -0.43904  -0.15933  -0.24211   0.04999  -0.14950
   5        2PZ        -0.05845   0.56315   0.02279  -0.01019  -0.10025
   6 2   H  1S          0.17910  -0.13550   0.17630   0.00071  -0.75660
   7 3   H  1S         -0.35363  -0.09295  -0.11599   0.15525  -0.34022
   8 4   H  1S          0.18689  -0.08038  -0.10883  -0.16797  -0.73001
   9 5   C  1S         -0.00192   0.05372   0.01574   0.00774   0.02600
  10        2S          0.00745  -0.15967  -0.06070  -0.02595  -0.12165
  11        2PX         0.12689   0.04693   0.12392   0.58884  -0.08131
  12        2PY        -0.12882   0.06281   0.54180  -0.13254  -0.22180
  13        2PZ        -0.01104  -0.44284   0.11685   0.05276   0.43530
  14 6   H  1S          0.08980  -0.13516  -0.26655   0.37161  -0.11423
  15 7   H  1S         -0.03140  -0.11010  -0.23733  -0.38915  -0.03841
  16 8   H  1S         -0.04471  -0.26691   0.41646  -0.00555   0.02517
                          11        12        13        14        15
                           V         V         V         V         V
     Eigenvalues --     0.06164   0.07221   0.08551   0.23093   0.24020
   1 1   N  1S         -0.00794  -0.01863   0.05395   0.00092  -0.00690
   2        2S          0.03343   0.09603  -0.36907  -0.00369   0.04312
   3        2PX        -0.61612   0.18596   0.66185  -0.30469   0.02019
   4        2PY        -0.65094   0.20313  -0.61397   0.05464   0.31543
   5        2PZ         0.28183   0.92353   0.02403  -0.04775   0.09747
   6 2   H  1S         -0.47218   0.77967  -0.24039  -0.01589   0.18616
   7 3   H  1S          0.16052   0.13738   1.15206  -0.16775  -0.17141
   8 4   H  1S          0.87298  -0.25404  -0.30265   0.18920  -0.10662
   9 5   C  1S          0.06644   0.07997   0.00654  -0.03194   0.08224
  10        2S         -0.37260  -0.43914  -0.04551   0.21217  -0.54668
  11        2PX        -0.20314  -0.09282   0.15241   1.01872  -0.01967
  12        2PY        -0.30980  -0.18405  -0.10929  -0.21092  -0.89213
  13        2PZ         0.41657   0.72431  -0.08778   0.22156  -0.57602
  14 6   H  1S          0.00119   0.00367  -0.22741  -0.91901  -0.29471
  15 7   H  1S         -0.18567   0.09183   0.15810   0.78730  -0.06420
  16 8   H  1S          0.22818  -0.11652   0.15039  -0.20534   1.21610
                          16
                           V
     Eigenvalues --     0.27924
   1 1   N  1S          0.03520
   2        2S         -0.23478
   3        2PX         0.07575
   4        2PY         0.11862
   5        2PZ        -0.05814
   6 2   H  1S          0.14897
   7 3   H  1S          0.07331
   8 4   H  1S          0.02748
   9 5   C  1S         -0.21507
  10        2S          1.38951
  11        2PX        -0.25208
  12        2PY        -0.49005
  13        2PZ         0.15725
  14 6   H  1S         -0.81638
  15 7   H  1S         -0.98604
  16 8   H  1S         -0.33198
          Condensed to atoms (all electrons):
               1          2          3          4          5          6
     1  N    6.124785   0.329676   0.326557   0.327142   0.291217  -0.022269
     2  H    0.329676   0.402427  -0.020612  -0.020519  -0.022139  -0.002781
     3  H    0.326557  -0.020612   0.376578  -0.020170  -0.022914   0.002576
     4  H    0.327142  -0.020519  -0.020170   0.406601  -0.022895  -0.002711
     5  C    0.291217  -0.022139  -0.022914  -0.022895   4.744843   0.386836
     6  H   -0.022269  -0.002781   0.002576  -0.002711   0.386836   0.514314
     7  H   -0.020830  -0.002785  -0.002853   0.002499   0.386688  -0.017885
     8  H   -0.020584   0.002441  -0.002705  -0.002418   0.395064  -0.019607
               7          8
     1  N   -0.020830  -0.020584
     2  H   -0.002785   0.002441
     3  H   -0.002853  -0.002705
     4  H    0.002499  -0.002418
     5  C    0.386688   0.395064
     6  H   -0.017885  -0.019607
     7  H    0.487275  -0.016997
     8  H   -0.016997   0.569135
 Mulliken charges:
               1
     1  N   -0.335694
     2  H    0.334293
     3  H    0.363543
     4  H    0.332472
     5  C   -0.136700
     6  H    0.161529
     7  H    0.184887
     8  H    0.095671
 Sum of Mulliken charges =   1.00000
 Mulliken charges with hydrogens summed into heavy atoms:
               1
     1  N    0.694614
     5  C    0.305386
 Electronic spatial extent (au):  <R**2>=         680235.2411
 Charge=              1.0000 electrons
 Dipole moment (field-independent basis, Debye):
    X=            229.4199    Y=            410.8960    Z=            149.9637  Tot=            493.9212
 Quadrupole moment (field-independent basis, Debye-Ang):
   XX=          10947.9740   YY=          35140.5732   ZZ=           4672.0963
   XY=          19626.1825   XZ=           7162.5320   YZ=          12828.2171
 Traceless Quadrupole moment (field-independent basis, Debye-Ang):
   XX=          -5972.2405   YY=          18220.3587   ZZ=         -12248.1182
   XY=          19626.1825   XZ=           7162.5320   YZ=          12828.2171
 Octapole moment (field-independent basis, Debye-Ang**2):
  XXX=         521963.7762  YYY=        3004432.7135  ZZZ=         145223.2176  XYY=        1678481.9933
  XXY=         936577.1718  XXZ=         341774.8075  XZZ=         223137.6497  YZZ=         399642.6391
  YYZ=        1097032.3266  XYZ=         612704.2886
 Hexadecapole moment (field-independent basis, Debye-Ang**3):
 XXXX=       24862839.2665 YYYY=      256799097.2520 ZZZZ=        4502673.8466 XXXY=       44653591.6825
 XXXZ=       16293248.4687 YYYX=      143507426.9626 YYYZ=       93787768.2101 ZZZX=        6935501.7323
 ZZZY=       12421571.1469 XXYY=       80099426.0267 XXZZ=       10646712.3155 YYZZ=       34174416.9765
 XXYZ=       29236788.1430 YYXZ=       52397219.9050 ZZXY=       19086979.3578
 N-N= 4.633049275539D+01 E-N=-3.085727468568D+02  KE= 9.273984267385D+01
 Orbital energies and kinetic energies (alpha):
                                 1                 2
   1         O               -14.222691         21.629295
   2         O                -9.980466         15.569454
   3         O                -1.088799          1.740397
   4         O                -0.804590          1.426186
   5         O                -0.697486          1.205830
   6         O                -0.691094          1.225100
   7         O                -0.594694          1.363052
   8         O                -0.525044          1.105091
   9         O                -0.495920          1.105516
  10         V                 0.026073          2.618675
  11         V                 0.061639          2.425051
  12         V                 0.072207          2.649155
  13         V                 0.085513          2.226928
  14         V                 0.230932          2.206317
  15         V                 0.240202          2.356231
  16         V                 0.279238          2.629206
 Total kinetic energy from orbitals= 9.273984267385D+01
 No NMR shielding tensors so no spin-rotation constants.
 Leave Link  601 at Fri May 22 12:39:29 2026, MaxMem=   131072000 cpu:               0.1 elap:               0.1
 (Enter /afs/math/software/gaussian/g16.A03/g16/l602.exe)
 FitSet:  NAtFit=     8 NAtPot=     8 NAtFrz=     0 MDM=    12 TotChg=   1.00000
 Merz-Kollman atomic radii used.

 **********************************************************************

            Electrostatic Properties Using The SCF Density

 **********************************************************************

       Atomic Center    1 is at  47.848780 85.625365 31.117099
       Atomic Center    2 is at  47.698913 84.844520 30.445541
       Atomic Center    3 is at  47.191511 86.391826 30.896739
       Atomic Center    4 is at  48.833161 85.976650 31.052918
       Atomic Center    5 is at  47.579740 85.177993 32.488937
       Atomic Center    6 is at  48.239318 84.354642 32.687138
       Atomic Center    7 is at  46.573729 84.794610 32.504458
       Atomic Center    8 is at  47.706846 85.954908 33.181995
      Read-in Center  469 is at  46.948950 86.424500 34.357776
      Read-in Center  470 is at  48.859377 86.998900 33.332042
      Read-in Center  471 is at  49.522728 86.785925 32.621757
      Read-in Center  472 is at  49.137952 88.148167 34.190014
      Read-in Center  473 is at  49.292454 87.765551 35.158264
      Read-in Center  474 is at  50.359011 88.891983 33.747531
      Read-in Center  475 is at  50.575638 89.667243 34.414501
      Read-in Center  476 is at  51.185091 88.249953 33.740757
      Read-in Center  477 is at  50.186609 89.410934 32.479994
      Read-in Center  478 is at  50.955935 89.898201 32.219583
      Read-in Center  479 is at  47.969511 89.055639 34.303687
      Read-in Center  480 is at  47.662512 89.636277 33.263581
      Read-in Center  481 is at  47.290000 89.260000 35.250000
      Read-in Center  482 is at  46.541178 86.503488 34.809698
      Read-in Center  483 is at  47.356722 86.345512 33.905854
      Read-in Center  484 is at  49.401087 87.358512 33.268566
      Read-in Center  485 is at  48.317666 86.639287 33.395518
     460 points will be used for fitting atomic charges
 Fitting point charges to electrostatic potential
 Charges from ESP fit, RMS=   0.00181 RRMS=   0.01061:
 ESP charges:
               1
     1  N   -0.175402
     2  H    0.301334
     3  H    0.326794
     4  H    0.300232
     5  C   -0.029411
     6  H    0.098535
     7  H    0.124572
     8  H    0.053346
 Sum of ESP charges =   1.00000
 ESP charges with hydrogens summed into heavy atoms:
               1
     1  N    0.752958
     5  C    0.247042
 Charge=   1.00000 Dipole=   229.4220   410.9048   149.9598 Tot=   493.9283
 -----------------------------------------------------------------

              Electrostatic Properties (Atomic Units)

 -----------------------------------------------------------------
    Center     Electric         -------- Electric Field --------
               Potential          X             Y             Z
 -----------------------------------------------------------------
    1 Atom    -17.587059      0.002254     -0.006995      0.017830
    2 Atom     -0.668266     -0.004148     -0.043527     -0.037948
    3 Atom     -0.648461     -0.033323      0.044550     -0.016472
    4 Atom     -0.674799      0.049544      0.016237     -0.005621
    5 Atom    -14.223840     -0.007409     -0.024356      0.052455
    6 Atom     -0.863832      0.037279     -0.046900      0.032172
    7 Atom     -0.841542     -0.051056     -0.020455      0.022514
    8 Atom     -0.898233      0.013933      0.074236      0.083538
  469           0.159848     -0.011353      0.008177      0.026446
  470           0.182630      0.015444      0.017368      0.021484
  471           0.199013      0.021900      0.017353      0.026203
  472           0.124696      0.005116      0.009580      0.010700
  473           0.109845      0.004000      0.005648      0.009774
  474           0.106459      0.005754      0.007576      0.005919
  475           0.088817      0.003662      0.005431      0.004286
  476           0.104470      0.007209      0.005791      0.005651
  477           0.111436      0.006106      0.010110      0.003602
  478           0.096413      0.005302      0.007408      0.001868
  479           0.111849      0.000574      0.009308      0.008068
  480           0.114457     -0.000222      0.011427      0.005945
  481           0.095487     -0.000764      0.006161      0.006587
  482           0.135079     -0.006559      0.004863      0.016473
  483           0.222513     -0.045477      0.045896      0.099683
  484           0.161070      0.012166      0.013741      0.016325
  485           0.229424      0.058768      0.064307      0.038365
 -----------------------------------------------------------------
 Leave Link  602 at Fri May 22 12:39:29 2026, MaxMem=   131072000 cpu:               0.0 elap:               0.0
 (Enter /afs/math/software/gaussian/g16.A03/g16/l701.exe)
 ... and contract with generalized density number  0.
 Compute integral first derivatives.
 Leave Link  701 at Fri May 22 12:39:29 2026, MaxMem=   131072000 cpu:               0.1 elap:               0.1
 (Enter /afs/math/software/gaussian/g16.A03/g16/l702.exe)
 L702 exits ... SP integral derivatives will be done elsewhere.
 Leave Link  702 at Fri May 22 12:39:29 2026, MaxMem=   131072000 cpu:               0.0 elap:               0.0
 (Enter /afs/math/software/gaussian/g16.A03/g16/l703.exe)
 Integral derivatives from FoFJK, PRISM(SPDF).
 Compute integral first derivatives, UseDBF=F ICtDFT=           0.
 Calling FoFJK, ICntrl=      2527 FMM=F ISym2X=0 I1Cent= 0 IOpClX= 0 NMat=1 NMatS=1 NMatT=0.
 FoFJK:  IHMeth= 1 ICntrl=    2527 DoSepK=F KAlg= 0 I1Cent=           0 FoldK=F
 IRaf=         0 NMat=       1 IRICut=       1 DoRegI=T DoRafI=F ISym2E= 0 IDoP0=0 IntGTp=1.
 FoFCou: FMM=F IPFlag=           0 FMFlag=      100000 FMFlg1=         800
         NFxFlg=           0 DoJE=F BraDBF=F KetDBF=F FulRan=T
         wScrn=  0.000000 ICntrl=      2527 IOpCl=  0 I1Cent=           0 NGrid=           0
         NMat0=    1 NMatS0=      1 NMatT0=    0 NMatD0=    1 NMtDS0=    0 NMtDT0=    0
 Symmetry not used in FoFCou.
 Leave Link  703 at Fri May 22 12:39:29 2026, MaxMem=   131072000 cpu:               0.6 elap:               0.6
 (Enter /afs/math/software/gaussian/g16.A03/g16/l716.exe)
 Dipole        = 9.02607335D+01 1.61658948D+02 5.90002487D+01
 -------------------------------------------------------------------
 Center     Atomic                   Forces (Hartrees/Bohr)
 Number     Number              X              Y              Z
 -------------------------------------------------------------------
      1        7           0.013148431    0.011790555   -0.011627051
      2        1          -0.000988849   -0.015873268   -0.018802576
      3        1          -0.018050092    0.031475767   -0.013450707
      4        1           0.015614258    0.009790003   -0.012926919
      5        6          -0.010774757   -0.043286251    0.005812387
      6        1           0.021861868   -0.021608494    0.012464757
      7        1          -0.029363266   -0.003623914    0.008895525
      8        1          -0.001881673    0.015192691    0.008390531
 -------------------------------------------------------------------
 Cartesian Forces:  Max     0.043286251 RMS     0.017607774
 Force constants in Cartesian coordinates: 
                1             2             3             4             5 
      1  0.829469D+00
      2 -0.629064D-02  0.825999D+00
      3  0.137086D-01  0.289949D-01  0.771986D+00
      4 -0.375097D-01 -0.299431D-01 -0.248344D-01  0.198516D+00
      5 -0.321083D-01 -0.196308D+00 -0.146882D+00  0.299431D-01  0.352753D+00
      6 -0.325229D-01 -0.177695D+00 -0.188032D+00  0.345333D-01  0.147510D+00
      7 -0.157847D+00  0.148401D+00 -0.454902D-01  0.554809D-01 -0.373869D-02
      8  0.159620D+00 -0.220278D+00  0.569998D-01 -0.658357D-02  0.668657D-01
      9 -0.663472D-01  0.775301D-01 -0.548783D-01 -0.547539D-02  0.243461D-01
     10 -0.306453D+00 -0.100339D+00  0.228986D-01  0.597749D-01  0.259695D-02
     11 -0.109651D+00 -0.687760D-01  0.765739D-02  0.113912D-01  0.601597D-01
     12  0.518765D-01  0.172996D-01 -0.346760D-01  0.213382D-01  0.184317D-01
     13 -0.797700D-01 -0.155864D-01  0.429645D-01  0.189261D-01  0.355056D-02
     14 -0.153595D-01 -0.984485D-01  0.683252D-01  0.441272D-02  0.290173D-01
     15  0.418933D-01  0.676913D-01 -0.290506D+00 -0.232792D-02 -0.218029D-02
     16  0.234281D-01 -0.276203D-02 -0.418599D-02  0.350607D-01 -0.413627D-02
     17 -0.115869D-02  0.231985D-01 -0.585704D-02  0.219965D-01  0.981595D-03
     18 -0.759547D-02 -0.127936D-02  0.372261D-01  0.281939D-01 -0.422585D-01
     19  0.242706D-01  0.268349D-02 -0.221838D-02  0.280633D-01 -0.198277D-02
     20  0.172873D-02  0.207743D-01 -0.603751D-02 -0.366399D-01  0.177030D-01
     21  0.323698D-02 -0.353191D-02  0.384817D-01 -0.490955D-01 -0.214650D-01
     22  0.198949D-01  0.383647D-02 -0.284281D-02 -0.428298D-01  0.587538D-02
     23  0.321950D-02  0.293213D-01 -0.320101D-02  0.542303D-02 -0.156906D-01
     24 -0.424973D-02 -0.900955D-02  0.358812D-01 -0.233217D-02  0.224981D-01
                6             7             8             9            10 
      6  0.255963D+00
      7  0.503254D-02  0.313440D+00
      8 -0.566073D-02 -0.141205D+00  0.344853D+00
      9  0.374568D-01  0.428388D-01 -0.234350D-01  0.159302D+00
     10 -0.326796D-02  0.695680D-01  0.480361D-02 -0.649270D-02  0.431249D+00
     11 -0.121546D-02 -0.176006D-01  0.510445D-01  0.844691D-02  0.798876D-01
     12  0.397688D-01  0.172078D-01  0.487743D-02  0.392775D-01  0.166304D-02
     13 -0.460751D-02  0.251878D-01 -0.227696D-03 -0.874401D-02  0.251662D-01
     14 -0.958732D-02 -0.363945D-02  0.225442D-01 -0.114621D-02  0.257059D-02
     15  0.351928D-01 -0.383278D-02 -0.521424D-02  0.376385D-01 -0.183380D-02
     16  0.170374D-02 -0.231382D-01 -0.250857D-01  0.803996D-02 -0.174016D-02
     17  0.153685D-01 -0.246564D-01 -0.887483D-03 -0.307205D-01 -0.134326D-01
     18  0.562943D-01  0.861803D-02 -0.319470D-01 -0.108775D-02  0.891861D-02
     19  0.886219D-03 -0.719379D-03 -0.135166D-01  0.803599D-02  0.120050D-01
     20  0.905314D-02  0.459379D-01  0.512838D-01 -0.131978D-01  0.255447D-01
     21  0.484739D-01 -0.257899D-01 -0.117167D-01  0.412342D-01 -0.225298D-01
     22 -0.175745D-02  0.335106D-01  0.221950D-01  0.281446D-01  0.259127D-01
     23  0.222275D-01 -0.349860D-02  0.563146D-04 -0.418237D-01 -0.163162D-02
     24  0.303646D-01  0.141571D-02  0.160966D-01  0.565395D-01  0.644047D-03
               11            12            13            14            15 
     11  0.217135D+00
     12  0.132742D-01  0.150819D+00
     13  0.208587D-03  0.383260D-02  0.752261D+00
     14  0.209199D-01 -0.404748D-02  0.201902D-02  0.789971D+00
     15 -0.569233D-02  0.392982D-01  0.126555D-01  0.489185D-01  0.756927D+00
     16  0.471184D-01 -0.250509D-01 -0.123163D+00  0.126311D+00 -0.354315D-01
     17  0.508074D-01 -0.113075D-01  0.137873D+00 -0.198693D+00  0.414701D-01
     18 -0.148546D-01  0.412175D-01 -0.546905D-01  0.616320D-01 -0.455551D-01
     19  0.258827D-01 -0.210345D-01 -0.270040D+00 -0.945023D-01  0.920183D-02
     20 -0.307760D-01 -0.167851D-01 -0.102931D+00 -0.643692D-01 -0.131943D-02
     21 -0.175461D-01 -0.845439D-02  0.364187D-01  0.864827D-02 -0.283044D-01
     22 -0.372365D-01 -0.498327D-01 -0.330860D-01 -0.218124D-01 -0.203246D-01
     23  0.149682D-01 -0.217429D-01 -0.249053D-01 -0.185460D+00 -0.143674D+00
     24  0.992997D-02  0.482321D-01 -0.278293D-01 -0.172743D+00 -0.189208D+00
               16            17            18            19            20 
     16  0.281882D+00
     17 -0.116601D+00  0.324303D+00
     18  0.310964D-01 -0.823161D-02  0.152408D+00
     19  0.699843D-01  0.594605D-02 -0.693871D-02  0.392549D+00
     20 -0.211390D-01  0.472025D-01  0.103171D-01  0.727990D-01  0.213933D+00
     21  0.187641D-01  0.644882D-02  0.385188D-01  0.153664D-01  0.200868D-01
     22  0.531690D-01 -0.996676D-02 -0.760223D-02  0.593694D-01  0.147000D-01
     23 -0.370617D-02  0.685690D-01  0.266221D-01  0.269035D-02  0.597312D-01
     24  0.506416D-02 -0.717082D-02  0.364605D-01 -0.329880D-02 -0.211723D-02
               21            22            23            24 
     21  0.146770D+00
     22  0.236290D-01  0.199541D+00
     23  0.190758D-01  0.224089D-01  0.343987D+00
     24  0.387621D-01  0.305861D-01  0.142516D+00  0.258450D+00
 Leave Link  716 at Fri May 22 12:39:29 2026, MaxMem=   131072000 cpu:               0.0 elap:               0.0
 (Enter /afs/math/software/gaussian/g16.A03/g16/l103.exe)

 GradGradGradGradGradGradGradGradGradGradGradGradGradGradGradGradGradGrad
 Berny optimization.
 Search for a local minimum.
 Step number   1 out of a maximum of    2
 All quantities printed in internal units (Hartrees-Bohrs-Radians)
 Second derivative matrix not updated -- first step.
 ITU=  0
     Eigenvalues ---    0.01348   0.04560   0.04688   0.06029   0.09062
     Eigenvalues ---    0.09148   0.14845   0.15279   0.16611   0.16704
     Eigenvalues ---    0.21851   0.33262   0.57216   0.86811   0.91425
     Eigenvalues ---    1.04277   1.07046   1.15415
 Quadratic step=5.402D-01 exceeds max=3.000D-01 adjusted using Lamda=-6.920D-02.
 Angle between NR and scaled steps=  16.41 degrees.
 Angle between quadratic step and forces=  34.13 degrees.
 Linear search not attempted -- first point.
 Variable       Old X    -DE/DX   Delta X   Delta X   Delta X     New X
                                 (Linear)    (Quad)   (Total)
    X1       90.42109   0.01315   0.00000   0.01529   0.01529  90.43638
    Y1      161.80849   0.01179   0.00000   0.03461   0.03461 161.84309
    Z1       58.80279  -0.01163   0.00000  -0.03544  -0.03544  58.76735
    X2       90.13788  -0.00099   0.00000   0.01612   0.01612  90.15400
    Y2      160.33291  -0.01587   0.00000  -0.00856  -0.00856 160.32434
    Z2       57.53373  -0.01880   0.00000  -0.06172  -0.06172  57.47201
    X3       89.17903  -0.01805   0.00000  -0.00677  -0.00677  89.17226
    Y3      163.25689   0.03148   0.00000   0.10125   0.10125 163.35814
    Z3       58.38637  -0.01345   0.00000  -0.07155  -0.07155  58.31483
    X4       92.28130   0.01561   0.00000   0.04663   0.04663  92.32793
    Y4      162.47232   0.00979   0.00000   0.04698   0.04698 162.51930
    Z4       58.68151  -0.01293   0.00000  -0.09286  -0.09286  58.58865
    X5       89.91268  -0.01077   0.00000  -0.01717  -0.01717  89.89551
    Y5      160.96308  -0.04329   0.00000  -0.07428  -0.07428 160.88879
    Z5       61.39519   0.00581   0.00000   0.03772   0.03772  61.43292
    X6       91.15910   0.02186   0.00000   0.06557   0.06557  91.22467
    Y6      159.40717  -0.02161   0.00000  -0.06895  -0.06895 159.33823
    Z6       61.76974   0.01246   0.00000   0.12533   0.12533  61.89507
    X7       88.01159  -0.02936   0.00000  -0.10019  -0.10019  87.91140
    Y7      160.23859  -0.00362   0.00000  -0.00937  -0.00937 160.22922
    Z7       61.42452   0.00890   0.00000   0.10708   0.10708  61.53161
    X8       90.15287  -0.00188   0.00000  -0.01976  -0.01976  90.13312
    Y8      162.43124   0.01519   0.00000   0.02905   0.02905 162.46029
    Z8       62.70488   0.00839   0.00000  -0.00492  -0.00492  62.69996
         Item               Value     Threshold  Converged?
 Maximum Force            0.043286     0.000450     NO 
 RMS     Force            0.017608     0.000300     NO 
 Maximum Displacement     0.125334     0.001800     NO 
 RMS     Displacement     0.061271     0.001200     NO 
 Predicted change in Energy=-1.383372D-02
 GradGradGradGradGradGradGradGradGradGradGradGradGradGradGradGradGradGrad

 Leave Link  103 at Fri May 22 12:39:29 2026, MaxMem=   131072000 cpu:               0.0 elap:               0.0
 (Enter /afs/math/software/gaussian/g16.A03/g16/l9999.exe)

 Test job not archived.
 1\1\GINC-CLUSTER-X\Force\RBP86\STO-3G\C1H6N1(1+)\JANSEN\22-May-2026\0\
 \#P BP86/STO-3G guess=read nosymm gfinput gfprint force charge guess=h
 uckel punch=derivatives iop(3/33=1,6/7=3) prop(field,read) pop=esp\\QM
  part of step 2\\1,1\N,47.84878,85.625365,31.117099\H,47.698913,84.844
 52,30.445541\H,47.191511,86.391826,30.896739\H,48.833161,85.97665,31.0
 52918\C,47.57974,85.177993,32.488937\H,48.239318,84.354642,32.687138\H
 ,46.573729,84.79461,32.504458\H,47.706846,85.954908,33.181995\\Version
 =ES64L-G16RevA.03\HF=-95.7721275\RMSD=3.552e-09\RMSF=1.761e-02\Dipole=
 0.0846561,0.2601577,-1.025619\Quadrupole=-4440.2144005,13546.3901191,-
 9106.1757186,14591.5856975,5325.1669668,9537.4649942\PG=C01 [X(C1H6N1)
 ]\\@


 THE PROMISED LAND ALWAYS LIES ON THE OTHER SIDE OF A WILDERNESS.

                         -- HAVELOCK ELLIS
 Job cpu time:       0 days  0 hours  0 minutes  4.1 seconds.
 Elapsed time:       0 days  0 hours  0 minutes  4.1 seconds.
 File lengths (MBytes):  RWF=     72 Int=      0 D2E=      0 Chk=      8 Scr=      8
 Normal termination of Gaussian 16 at Fri May 22 12:39:30 2026.
