 Entering Gaussian System, Link 0=g16
 Input=/net/work/jansen/gmx2qmmm_portable/examples/opt/test.3.gjf
 Output=/net/work/jansen/gmx2qmmm_portable/examples/opt/test.3.log
 Initial command:
 /afs/math/software/gaussian/g16.A03/g16/l1.exe "/net/work/jansen/gmx2qmmm_portable/examples/opt/Gau-22679.inp" -scrdir="/net/work/jansen/gmx2qmmm_portable/examples/opt/"
 Entering Link 1 = /afs/math/software/gaussian/g16.A03/g16/l1.exe PID=     22680.
  
 Copyright (c) 1988,1990,1992,1993,1995,1998,2003,2009,2016,
            Gaussian, Inc.  All Rights Reserved.
  
 This is part of the Gaussian(R) 16 program.  It is based on
 the Gaussian(R) 09 system (copyright 2009, Gaussian, Inc.),
 the Gaussian(R) 03 system (copyright 2003, Gaussian, Inc.),
 the Gaussian(R) 98 system (copyright 1998, Gaussian, Inc.),
 the Gaussian(R) 94 system (copyright 1995, Gaussian, Inc.),
 the Gaussian 92(TM) system (copyright 1992, Gaussian, Inc.),
 the Gaussian 90(TM) system (copyright 1990, Gaussian, Inc.),
 the Gaussian 88(TM) system (copyright 1988, Gaussian, Inc.),
 the Gaussian 86(TM) system (copyright 1986, Carnegie Mellon
 University), and the Gaussian 82(TM) system (copyright 1983,
 Carnegie Mellon University). Gaussian is a federally registered
 trademark of Gaussian, Inc.
  
 This software contains proprietary and confidential information,
 including trade secrets, belonging to Gaussian, Inc.
  
 This software is provided under written license and may be
 used, copied, transmitted, or stored only in accord with that
 written license.
  
 The following legend is applicable only to US Government
 contracts under FAR:
  
                    RESTRICTED RIGHTS LEGEND
  
 Use, reproduction and disclosure by the US Government is
 subject to restrictions as set forth in subparagraphs (a)
 and (c) of the Commercial Computer Software - Restricted
 Rights clause in FAR 52.227-19.
  
 Gaussian, Inc.
 340 Quinnipiac St., Bldg. 40, Wallingford CT 06492
  
  
 ---------------------------------------------------------------
 Warning -- This program may not be used in any manner that
 competes with the business of Gaussian, Inc. or will provide
 assistance to any competitor of Gaussian, Inc.  The licensee
 of this program is prohibited from giving any competitor of
 Gaussian, Inc. access to this program.  By using this program,
 the user acknowledges that Gaussian, Inc. is engaged in the
 business of creating and licensing software in the field of
 computational chemistry and represents and warrants to the
 licensee that it is not a competitor of Gaussian, Inc. and that
 it will not use this program in any manner prohibited above.
 ---------------------------------------------------------------
  

 Cite this work as:
 Gaussian 16, Revision A.03,
 M. J. Frisch, G. W. Trucks, H. B. Schlegel, G. E. Scuseria, 
 M. A. Robb, J. R. Cheeseman, G. Scalmani, V. Barone, 
 G. A. Petersson, H. Nakatsuji, X. Li, M. Caricato, A. V. Marenich, 
 J. Bloino, B. G. Janesko, R. Gomperts, B. Mennucci, H. P. Hratchian, 
 J. V. Ortiz, A. F. Izmaylov, J. L. Sonnenberg, D. Williams-Young, 
 F. Ding, F. Lipparini, F. Egidi, J. Goings, B. Peng, A. Petrone, 
 T. Henderson, D. Ranasinghe, V. G. Zakrzewski, J. Gao, N. Rega, 
 G. Zheng, W. Liang, M. Hada, M. Ehara, K. Toyota, R. Fukuda, 
 J. Hasegawa, M. Ishida, T. Nakajima, Y. Honda, O. Kitao, H. Nakai, 
 T. Vreven, K. Throssell, J. A. Montgomery, Jr., J. E. Peralta, 
 F. Ogliaro, M. J. Bearpark, J. J. Heyd, E. N. Brothers, K. N. Kudin, 
 V. N. Staroverov, T. A. Keith, R. Kobayashi, J. Normand, 
 K. Raghavachari, A. P. Rendell, J. C. Burant, S. S. Iyengar, 
 J. Tomasi, M. Cossi, J. M. Millam, M. Klene, C. Adamo, R. Cammi, 
 J. W. Ochterski, R. L. Martin, K. Morokuma, O. Farkas, 
 J. B. Foresman, and D. J. Fox, Gaussian, Inc., Wallingford CT, 2016.
 
 ******************************************
 Gaussian 16:  ES64L-G16RevA.03 25-Dec-2016
                22-May-2026 
 ******************************************
 %NPROCSHARED=1
 Will use up to    1 processors via shared memory.
 %MEM=1000MB
 %CHK=test.3.chk
 %OLDCHK=test.2.chk
 Copying data from "test.2.chk" to current chk file "test.3.chk"
 IOpt=  2 FromEx=T IUOpen= 4 IOptOp= 5 NList=   0 IFRang= 0 IUIn= 4 IUOut= 2.
 ----------------------------------------------------------------------
 #P BP86/STO-3G guess=read nosymm gfinput gfprint force charge guess=hu
 ckel punch=derivatives iop(3/33=1,6/7=3) prop(field,read) pop=esp
 ----------------------------------------------------------------------
 1/10=7,18=10,28=-2,30=1,38=1,125=101/1,3;
 2/12=2,15=1,17=6,18=5,29=2,40=1/2;
 3/6=3,11=2,24=110,25=1,30=1,33=1,71=1,74=404,116=-2/1,2,3;
 4/5=1,11=4/1;
 5/5=2,38=6/2;
 6/7=3,8=2,9=2,10=2,14=2,15=9,28=1/1,2;
 7/7=1,16=-2,29=1,30=1/1,2,3,16;
 1/10=7,18=10,28=-2,30=1/3;
 99/10=4,12=1/99;
 Leave Link    1 at Fri May 22 12:39:31 2026, MaxMem=   131072000 cpu:               0.1 elap:               0.1
 (Enter /afs/math/software/gaussian/g16.A03/g16/l101.exe)
 -----------------
 QM part of step 3
 -----------------
 Symbolic Z-matrix:
 Charge =  1 Multiplicity = 1
 N                     47.8616   85.63601   31.09854 
 H                     47.69797   84.82864   30.42845 
 H                     47.17305   86.42782   30.88972 
 H                     48.84786   85.98915   31.04596 
 C                     47.5686   85.14085   32.50491 
 H                     48.26414   84.33038   32.70119 
 H                     46.54108   84.79028   32.51366 
 H                     47.70336   85.94765   33.18276 
 
 ITRead=  0  0  0  0  0  0  0  0
 MicOpt= -1 -1 -1 -1 -1 -1 -1 -1
 NAtoms=      8 NQM=        8 NQMF=       0 NMMI=      0 NMMIF=      0
                NMic=       0 NMicF=      0.
                    Isotopes and Nuclear Properties:
 (Nuclear quadrupole moments (NQMom) in fm**2, nuclear magnetic moments (NMagM)
  in nuclear magnetons)

  Atom         1           2           3           4           5           6           7           8
 IAtWgt=          14           1           1           1          12           1           1           1
 AtmWgt=  14.0030740   1.0078250   1.0078250   1.0078250  12.0000000   1.0078250   1.0078250   1.0078250
 NucSpn=           2           1           1           1           0           1           1           1
 AtZEff=  -0.0000000  -0.0000000  -0.0000000  -0.0000000  -0.0000000  -0.0000000  -0.0000000  -0.0000000
 NQMom=    2.0440000   0.0000000   0.0000000   0.0000000   0.0000000   0.0000000   0.0000000   0.0000000
 NMagM=    0.4037610   2.7928460   2.7928460   2.7928460   0.0000000   2.7928460   2.7928460   2.7928460
 AtZNuc=   7.0000000   1.0000000   1.0000000   1.0000000   6.0000000   1.0000000   1.0000000   1.0000000
 Background charge distribution read from input stream:
 Point Charges:
 XYZ=   46.9458   86.4043   34.3428 Q=   -0.2861 A=    0.0000 R=    0.0000 C=    0.0000
 XYZ=   48.8572   86.9904   33.3242 Q=   -0.0960 A=    0.0000 R=    0.0000 C=    0.0000
 XYZ=   49.5294   86.7929   32.6204 Q=    0.2681 A=    0.0000 R=    0.0000 C=    0.0000
 XYZ=   49.1375   88.1262   34.1970 Q=   -0.2722 A=    0.0000 R=    0.0000 C=    0.0000
 XYZ=   49.2966   87.7631   35.1820 Q=    0.1304 A=    0.0000 R=    0.0000 C=    0.0000
 XYZ=   50.3574   88.8914   33.7410 Q=    0.1123 A=    0.0000 R=    0.0000 C=    0.0000
 XYZ=   50.5774   89.6908   34.4355 Q=    0.0813 A=    0.0000 R=    0.0000 C=    0.0000
 XYZ=   51.2068   88.2306   33.7420 Q=    0.0813 A=    0.0000 R=    0.0000 C=    0.0000
 XYZ=   50.1967   89.3965   32.4511 Q=   -0.6514 A=    0.0000 R=    0.0000 C=    0.0000
 XYZ=   50.9632   89.9101   32.2198 Q=    0.4474 A=    0.0000 R=    0.0000 C=    0.0000
 XYZ=   47.9633   89.0977   34.2275 Q=    0.8113 A=    0.0000 R=    0.0000 C=    0.0000
 XYZ=   47.6488   89.6369   33.2360 Q=   -0.8132 A=    0.0000 R=    0.0000 C=    0.0000
 XYZ=   47.2900   89.2600   35.2500 Q=   -0.8132 A=    0.0000 R=    0.0000 C=    0.0000
 XYZ=   46.5377   86.4705   34.7889 Q=   -0.2744 A=    0.0000 R=    0.0000 C=    0.0000
 XYZ=   47.3540   86.3381   33.8968 Q=    0.2744 A=    0.0000 R=    0.0000 C=    0.0000
 XYZ=   49.3949   87.3414   33.2598 Q=   -0.2817 A=    0.0000 R=    0.0000 C=    0.0000
 XYZ=   48.3195   86.6393   33.3885 Q=    0.2817 A=    0.0000 R=    0.0000 C=    0.0000
 Pt Chg Charge=             -1.0000 electrons
 Pt Chg Dipole moment (Debye):
    X=           -221.5582    Y=           -429.0877    Z=           -165.8252  Tot=            510.5901
 Pt Chg Quadrupole moment (Debye-Ang):
   XX=         -10196.3283   YY=         -38331.6836   ZZ=          -5730.4864
   XY=         -19798.8709   XZ=          -7650.8212   YZ=         -14806.4438
 Pt Chg Traceless Quadrupole moment (Debye-Ang):
   XX=           7889.8378   YY=         -20245.5175   ZZ=          12355.6797
   XY=         -19798.8709   XZ=          -7650.8212   YZ=         -14806.4438
 Pt Chg Octapole moment (Debye-Ang**2):
  XXX=        -468000.4301  YYY=       -3424260.9915  ZZZ=        -198222.1024  XYY=       -1769221.4646
  XXY=        -911462.7386  XXZ=        -352207.5711  XZZ=        -264450.4638  YZZ=        -511428.4452
  YYZ=       -1322075.4276  XYZ=        -683346.3422
 Pt Chg Hexadecapole moment (Debye-Ang**3):
 XXXX=      -21414736.6075 YYYY=     -305895489.2801 ZZZZ=       -6863227.9255 XXXY=      -41849462.4860
 XXXZ=      -16172478.2612 YYYX=     -158093347.7032 YYYZ=     -118050209.5450 ZZZX=       -9149463.0514
 ZZZY=      -17682616.5652 XXYY=      -81473213.0649 XXZZ=      -12177611.6341 YYZZ=      -45644775.2840
 XXYZ=      -31467947.6150 YYXZ=      -61033978.4181 ZZXY=      -23608329.6768
 Leave Link  101 at Fri May 22 12:39:31 2026, MaxMem=   131072000 cpu:               0.1 elap:               0.1
 (Enter /afs/math/software/gaussian/g16.A03/g16/l103.exe)

 GradGradGradGradGradGradGradGradGradGradGradGradGradGradGradGradGradGrad
 Berny optimization.
 Initialization pass.
 Trust Radius=3.00D-01 FncErr=1.00D-07 GrdErr=1.00D-07 EigMax=2.50D+02 EigMin=1.00D-04
 Number of steps in this run=      2 maximum allowed number of steps=      2.
 GradGradGradGradGradGradGradGradGradGradGradGradGradGradGradGradGradGrad

 Leave Link  103 at Fri May 22 12:39:31 2026, MaxMem=   131072000 cpu:               0.0 elap:               0.0
 (Enter /afs/math/software/gaussian/g16.A03/g16/l202.exe)
 ---------------------------------------------------------------------------------------------------
                            Z-MATRIX (ANGSTROMS AND DEGREES)
   CD    Cent   Atom    N1       Length/X        N2       Alpha/Y        N3        Beta/Z          J
 ---------------------------------------------------------------------------------------------------
      1      1  N        0  47.861605         85.636014         31.098540
      2      2  H        0  47.697966         84.828638         30.428451
      3      3  H        0  47.173045         86.427817         30.889721
      4      4  H        0  48.847865         85.989154         31.045963
      5      5  C        0  47.568599         85.140849         32.504912
      6      6  H        0  48.264135         84.330384         32.701190
      7      7  H        0  46.541083         84.790281         32.513664
      8      8  H        0  47.703360         85.947654         33.182760
 ---------------------------------------------------------------------------------------------------
                         Z-Matrix orientation:                         
 ---------------------------------------------------------------------
 Center     Atomic      Atomic             Coordinates (Angstroms)
 Number     Number       Type             X           Y           Z
 ---------------------------------------------------------------------
      1          7           0       47.861605   85.636014   31.098540
      2          1           0       47.697966   84.828638   30.428451
      3          1           0       47.173045   86.427817   30.889721
      4          1           0       48.847865   85.989154   31.045963
      5          6           0       47.568599   85.140849   32.504912
      6          1           0       48.264135   84.330384   32.701190
      7          1           0       46.541083   84.790281   32.513664
      8          1           0       47.703360   85.947654   33.182760
 ---------------------------------------------------------------------
                    Distance matrix (angstroms):
                    1          2          3          4          5
     1  N    0.000000
     2  H    1.061910   0.000000
     3  H    1.069894   1.745189   0.000000
     4  H    1.048895   1.746535   1.738349   0.000000
     5  C    1.519514   2.103783   2.102758   2.117705   0.000000
     6  H    2.105988   2.394608   2.978443   2.414961   1.085886
     7  H    2.112254   2.384945   2.391253   2.985412   1.085709
     8  H    2.113323   2.972952   2.402045   2.424359   1.062343
                    6          7          8
     6  H    0.000000
     7  H    1.793204   0.000000
     8  H    1.778185   1.771465   0.000000
 Symmetry turned off by external request.
 Stoichiometry    CH6N(1+)
 Framework group  C1[X(CH6N)]
 Deg. of freedom    18
 Full point group                 C1      NOp   1
 Rotational constants (GHZ):          80.7283121          20.0484485          20.0253829
 Leave Link  202 at Fri May 22 12:39:31 2026, MaxMem=   131072000 cpu:               0.0 elap:               0.0
 (Enter /afs/math/software/gaussian/g16.A03/g16/l301.exe)
 Standard basis: STO-3G (5D, 7F)
                         Coordinates in L301:                         
 ---------------------------------------------------------------------
 Center     Atomic      Atomic             Coordinates (Angstroms)
 Number     Number       Type             X           Y           Z
 ---------------------------------------------------------------------
      1          7           0       47.861605   85.636014   31.098540
      2          1           0       47.697966   84.828638   30.428451
      3          1           0       47.173045   86.427817   30.889721
      4          1           0       48.847865   85.989154   31.045963
      5          6           0       47.568599   85.140849   32.504912
      6          1           0       48.264135   84.330384   32.701190
      7          1           0       46.541083   84.790281   32.513664
      8          1           0       47.703360   85.947654   33.182760
 ---------------------------------------------------------------------
 FixB: optimizing general contractions.
 Ernie: Thresh=  0.10000D-02 Tol=  0.10000D-05 Strict=F.
 IA=     1 ShT= 0 ShC= 0 NL=   1 NS=   0.
 IA=     1 L=0 SC=0 ISt=    0 NBk=    0 NP=    0 IndPr=    0.
 IA=     1 ShT= 1 ShC= 0 NL=   1 NS=   0.
 IA=     1 L=1 SC=0 ISt=    0 NBk=    0 NP=    0 IndPr=    0.
 IA=     2 ShT= 0 ShC= 0 NL=   1 NS=   0.
 IA=     2 L=0 SC=0 ISt=    0 NBk=    0 NP=    0 IndPr=    0.
 IA=     3 ShT= 0 ShC= 0 NL=   1 NS=   0.
 IA=     3 L=0 SC=0 ISt=    0 NBk=    0 NP=    0 IndPr=    0.
 IA=     4 ShT= 0 ShC= 0 NL=   1 NS=   0.
 IA=     4 L=0 SC=0 ISt=    0 NBk=    0 NP=    0 IndPr=    0.
 IA=     5 ShT= 0 ShC= 0 NL=   1 NS=   0.
 IA=     5 L=0 SC=0 ISt=    0 NBk=    0 NP=    0 IndPr=    0.
 IA=     5 ShT= 1 ShC= 0 NL=   1 NS=   0.
 IA=     5 L=1 SC=0 ISt=    0 NBk=    0 NP=    0 IndPr=    0.
 IA=     6 ShT= 0 ShC= 0 NL=   1 NS=   0.
 IA=     6 L=0 SC=0 ISt=    0 NBk=    0 NP=    0 IndPr=    0.
 IA=     7 ShT= 0 ShC= 0 NL=   1 NS=   0.
 IA=     7 L=0 SC=0 ISt=    0 NBk=    0 NP=    0 IndPr=    0.
 IA=     8 ShT= 0 ShC= 0 NL=   1 NS=   0.
 IA=     8 L=0 SC=0 ISt=    0 NBk=    0 NP=    0 IndPr=    0.
 AO basis set in the form of general basis input (Overlap normalization):
      1 0
 S   3 1.00       0.000000000000
      0.9910616896D+02  0.1543289673D+00
      0.1805231239D+02  0.5353281423D+00
      0.4885660238D+01  0.4446345422D+00
 SP   3 1.00       0.000000000000
      0.3780455879D+01 -0.9996722919D-01  0.1559162750D+00
      0.8784966449D+00  0.3995128261D+00  0.6076837186D+00
      0.2857143744D+00  0.7001154689D+00  0.3919573931D+00
 ****
      2 0
 S   3 1.00       0.000000000000
      0.3425250914D+01  0.1543289673D+00
      0.6239137298D+00  0.5353281423D+00
      0.1688554040D+00  0.4446345422D+00
 ****
      3 0
 S   3 1.00       0.000000000000
      0.3425250914D+01  0.1543289673D+00
      0.6239137298D+00  0.5353281423D+00
      0.1688554040D+00  0.4446345422D+00
 ****
      4 0
 S   3 1.00       0.000000000000
      0.3425250914D+01  0.1543289673D+00
      0.6239137298D+00  0.5353281423D+00
      0.1688554040D+00  0.4446345422D+00
 ****
      5 0
 S   3 1.00       0.000000000000
      0.7161683735D+02  0.1543289673D+00
      0.1304509632D+02  0.5353281423D+00
      0.3530512160D+01  0.4446345422D+00
 SP   3 1.00       0.000000000000
      0.2941249355D+01 -0.9996722919D-01  0.1559162750D+00
      0.6834830964D+00  0.3995128261D+00  0.6076837186D+00
      0.2222899159D+00  0.7001154689D+00  0.3919573931D+00
 ****
      6 0
 S   3 1.00       0.000000000000
      0.3425250914D+01  0.1543289673D+00
      0.6239137298D+00  0.5353281423D+00
      0.1688554040D+00  0.4446345422D+00
 ****
      7 0
 S   3 1.00       0.000000000000
      0.3425250914D+01  0.1543289673D+00
      0.6239137298D+00  0.5353281423D+00
      0.1688554040D+00  0.4446345422D+00
 ****
      8 0
 S   3 1.00       0.000000000000
      0.3425250914D+01  0.1543289673D+00
      0.6239137298D+00  0.5353281423D+00
      0.1688554040D+00  0.4446345422D+00
 ****

 AO basis set (Overlap normalization):
 Atom N1       Shell     1 S   3     bf    1 -     1         90.445325332114        161.828612859419         58.767723473832
      0.9910616896D+02  0.1543289673D+00
      0.1805231239D+02  0.5353281423D+00
      0.4885660238D+01  0.4446345422D+00
 Atom N1       Shell     2 SP   3    bf    2 -     5         90.445325332114        161.828612859419         58.767723473832
      0.3780455879D+01 -0.9996722919D-01  0.1559162750D+00
      0.8784966449D+00  0.3995128261D+00  0.6076837186D+00
      0.2857143744D+00  0.7001154689D+00  0.3919573931D+00
 Atom H2       Shell     3 S   3     bf    6 -     6         90.136092438816        160.302893339873         57.501438784748
      0.3425250914D+01  0.1543289673D+00
      0.6239137298D+00  0.5353281423D+00
      0.1688554040D+00  0.4446345422D+00
 Atom H3       Shell     4 S   3     bf    7 -     7         89.144135511783        163.324903674028         58.373112754226
      0.3425250914D+01  0.1543289673D+00
      0.6239137298D+00  0.5353281423D+00
      0.1688554040D+00  0.4446345422D+00
 Atom H4       Shell     5 S   3     bf    8 -     8         92.309086619727        162.495950743048         58.668367343380
      0.3425250914D+01  0.1543289673D+00
      0.6239137298D+00  0.5353281423D+00
      0.1688554040D+00  0.4446345422D+00
 Atom C5       Shell     6 S   3     bf    9 -     9         89.891624239259        160.892886622949         61.425381383088
      0.7161683735D+02  0.1543289673D+00
      0.1304509632D+02  0.5353281423D+00
      0.3530512160D+01  0.4446345422D+00
 Atom C5       Shell     7 SP   3    bf   10 -    13         89.891624239259        160.892886622949         61.425381383088
      0.2941249355D+01 -0.9996722919D-01  0.1559162750D+00
      0.6834830964D+00  0.3995128261D+00  0.6076837186D+00
      0.2222899159D+00  0.7001154689D+00  0.3919573931D+00
 Atom H6       Shell     8 S   3     bf   14 -    14         91.205996789035        159.361329739404         61.796293047366
      0.3425250914D+01  0.1543289673D+00
      0.6239137298D+00  0.5353281423D+00
      0.1688554040D+00  0.4446345422D+00
 Atom H7       Shell     9 S   3     bf   15 -    15         87.949900410651        160.230409114913         61.441920266131
      0.3425250914D+01  0.1543289673D+00
      0.6239137298D+00  0.5353281423D+00
      0.1688554040D+00  0.4446345422D+00
 Atom H8       Shell    10 S   3     bf   16 -    16         90.146285621532        162.417527108879         62.706328457173
      0.3425250914D+01  0.1543289673D+00
      0.6239137298D+00  0.5353281423D+00
      0.1688554040D+00  0.4446345422D+00
 LdAtmC:  AtmChg=     7.000000     1.000000     1.000000     1.000000     6.000000
 LdAtmC:  AtmChg=     1.000000     1.000000     1.000000
 AtZEff=     -4.5500000     -1.0000000     -1.0000000     -1.0000000     -3.6000000
 AtZEff=     -1.0000000     -1.0000000     -1.0000000
    16 basis functions,    48 primitive gaussians,    16 cartesian basis functions
     9 alpha electrons        9 beta electrons
       nuclear repulsion energy        47.3865566785 Hartrees.
 IS=     1 IAt=     1 ISR=     1 T=0 IP=      1 IndIP=      1 IndIPD=      0 C=  3.454881D+00  0.000000D+00                             NZ=T
 IS=     1 IAt=     1 ISR=     1 T=0 IP=      2 IndIP=      2 IndIPD=      1 C=  3.341410D+00  0.000000D+00                             NZ=T
 IS=     1 IAt=     1 ISR=     1 T=0 IP=      3 IndIP=      3 IndIPD=      2 C=  1.041372D+00  0.000000D+00                             NZ=T
 IS=     2 IAt=     1 ISR=     2 T=1 IP=      1 IndIP=      4 IndIPD=      0 C= -1.931639D-01  1.171553D+00                             NZ=T
 IS=     2 IAt=     1 ISR=     2 T=1 IP=      2 IndIP=      5 IndIPD=      1 C=  2.583723D-01  7.367037D-01                             NZ=T
 IS=     2 IAt=     1 ISR=     2 T=1 IP=      3 IndIP=      6 IndIPD=      2 C=  1.949974D-01  1.167062D-01                             NZ=T
 IS=     3 IAt=     2 ISR=     1 T=0 IP=      1 IndIP=      7 IndIPD=      0 C=  2.769344D-01  0.000000D+00                             NZ=T
 IS=     3 IAt=     2 ISR=     1 T=0 IP=      2 IndIP=      8 IndIPD=      1 C=  2.678389D-01  0.000000D+00                             NZ=T
 IS=     3 IAt=     2 ISR=     1 T=0 IP=      3 IndIP=      9 IndIPD=      2 C=  8.347367D-02  0.000000D+00                             NZ=T
 IS=     4 IAt=     3 ISR=     1 T=0 IP=      1 IndIP=     10 IndIPD=      0 C=  2.769344D-01  0.000000D+00                             NZ=T
 IS=     4 IAt=     3 ISR=     1 T=0 IP=      2 IndIP=     11 IndIPD=      1 C=  2.678389D-01  0.000000D+00                             NZ=T
 IS=     4 IAt=     3 ISR=     1 T=0 IP=      3 IndIP=     12 IndIPD=      2 C=  8.347367D-02  0.000000D+00                             NZ=T
 IS=     5 IAt=     4 ISR=     1 T=0 IP=      1 IndIP=     13 IndIPD=      0 C=  2.769344D-01  0.000000D+00                             NZ=T
 IS=     5 IAt=     4 ISR=     1 T=0 IP=      2 IndIP=     14 IndIPD=      1 C=  2.678389D-01  0.000000D+00                             NZ=T
 IS=     5 IAt=     4 ISR=     1 T=0 IP=      3 IndIP=     15 IndIPD=      2 C=  8.347367D-02  0.000000D+00                             NZ=T
 IS=     6 IAt=     5 ISR=     1 T=0 IP=      1 IndIP=     16 IndIPD=      0 C=  2.707814D+00  0.000000D+00                             NZ=T
 IS=     6 IAt=     5 ISR=     1 T=0 IP=      2 IndIP=     17 IndIPD=      1 C=  2.618880D+00  0.000000D+00                             NZ=T
 IS=     6 IAt=     5 ISR=     1 T=0 IP=      3 IndIP=     18 IndIPD=      2 C=  8.161906D-01  0.000000D+00                             NZ=T
 IS=     7 IAt=     5 ISR=     2 T=1 IP=      1 IndIP=     19 IndIPD=      0 C= -1.600172D-01  8.560445D-01                             NZ=T
 IS=     7 IAt=     5 ISR=     2 T=1 IP=      2 IndIP=     20 IndIPD=      1 C=  2.140359D-01  5.383038D-01                             NZ=T
 IS=     7 IAt=     5 ISR=     2 T=1 IP=      3 IndIP=     21 IndIPD=      2 C=  1.615361D-01  8.527636D-02                             NZ=T
 IS=     8 IAt=     6 ISR=     1 T=0 IP=      1 IndIP=     22 IndIPD=      0 C=  2.769344D-01  0.000000D+00                             NZ=T
 IS=     8 IAt=     6 ISR=     1 T=0 IP=      2 IndIP=     23 IndIPD=      1 C=  2.678389D-01  0.000000D+00                             NZ=T
 IS=     8 IAt=     6 ISR=     1 T=0 IP=      3 IndIP=     24 IndIPD=      2 C=  8.347367D-02  0.000000D+00                             NZ=T
 IS=     9 IAt=     7 ISR=     1 T=0 IP=      1 IndIP=     25 IndIPD=      0 C=  2.769344D-01  0.000000D+00                             NZ=T
 IS=     9 IAt=     7 ISR=     1 T=0 IP=      2 IndIP=     26 IndIPD=      1 C=  2.678389D-01  0.000000D+00                             NZ=T
 IS=     9 IAt=     7 ISR=     1 T=0 IP=      3 IndIP=     27 IndIPD=      2 C=  8.347367D-02  0.000000D+00                             NZ=T
 IS=    10 IAt=     8 ISR=     1 T=0 IP=      1 IndIP=     28 IndIPD=      0 C=  2.769344D-01  0.000000D+00                             NZ=T
 IS=    10 IAt=     8 ISR=     1 T=0 IP=      2 IndIP=     29 IndIPD=      1 C=  2.678389D-01  0.000000D+00                             NZ=T
 IS=    10 IAt=     8 ISR=     1 T=0 IP=      3 IndIP=     30 IndIPD=      2 C=  8.347367D-02  0.000000D+00                             NZ=T
 IExCor=  404 DFT=T Ex=B Corr=P86 ExCW=0 ScaHFX=  0.000000
 ScaDFX=  1.000000  1.000000  1.000000  1.000000 ScalE2=  1.000000  1.000000
 IRadAn=      5 IRanWt=     -1 IRanGd=            0 ICorTp=0 IEmpDi=  4
 NAtoms=    8 NActive=    8 NUniq=    8 SFac= 1.00D+00 NAtFMM=   60 NAOKFM=F Big=F
 Integral buffers will be    131072 words long.
 Raffenetti 2 integral format.
 Two-electron integral symmetry is turned off.
 Background charge distribution read from rwf.
 PtFMM for NChg=        25 BoxLen=    40.00 Levels= 0 LMax=20 SMax=    10.5 ICnFMM=     1:
 Self energy of the charges =        -0.6623930701 a.u.
 MM   energy of the charges =         0.0000000000 a.u.
 Nuclei-charges interaction =        -1.5183565797 a.u.
 Nuclear repulsion after external point charges =       45.2058070287 Hartrees.
 Leave Link  301 at Fri May 22 12:39:31 2026, MaxMem=   131072000 cpu:               0.0 elap:               0.0
 (Enter /afs/math/software/gaussian/g16.A03/g16/l302.exe)
 NPDir=0 NMtPBC=     1 NCelOv=     1 NCel=       1 NClECP=     1 NCelD=      1
         NCelK=      1 NCelE2=     1 NClLst=     1 CellRange=     0.0.
 One-electron integrals computed using PRISM.
 Entering OneElI...
 Calculate overlap and kinetic energy integrals
    NBasis =  16  MinDer = 0  MaxDer = 0
 Requested accuracy = 0.1000D-12
 PrmmSu-InSpLW:  IPartL=    0 NPrtUS=    1 NPrtUL=    1 DoSpLW=F IThBeg=    0 IThEnd=    0 NThAct=    1.
 PrsmSu:  NPrtUS=   1 ThrOK=F IAlg=1 NPAlg=1 LenDen=           0 ISkipM=0 DoSpLW=F IThBeg=    0 IThEnd=    0.
 Prism:   IPart=     0 DynPar=F LinDyn=F Incr=           1.
 PRISM was handed   131062263 working-precision words and    55 shell-pairs
 IPart=  0 NShTot=          55 NBatch=           5 AvBLen=        11.0
 PrSmSu:  NxtVal=              2.
 *** Overlap *** 
                1             2             3             4             5 
      1  0.100000D+01
      2  0.235038D+00  0.100000D+01
      3  0.000000D+00  0.000000D+00  0.100000D+01
      4  0.000000D+00  0.000000D+00  0.000000D+00  0.100000D+01
      5  0.000000D+00  0.000000D+00  0.000000D+00  0.000000D+00  0.100000D+01
      6  0.519108D-01  0.464275D+00 -0.650322D-01 -0.320861D+00 -0.266302D+00
      7  0.509396D-01  0.459466D+00 -0.269722D+00  0.310164D+00 -0.817982D-01
      8  0.535342D-01  0.472170D+00  0.401246D+00  0.143670D+00 -0.213902D-01
      9  0.000000D+00  0.202042D-01 -0.677809D-02 -0.114546D-01  0.325335D-01
     10  0.217569D-01  0.264613D+00 -0.549266D-01 -0.928230D-01  0.263637D+00
     11  0.702621D-02  0.631512D-01  0.124284D+00 -0.275565D-01  0.782663D-01
     12  0.118739D-01  0.106722D+00 -0.275565D-01  0.940212D-01  0.132266D+00
     13 -0.337244D-01 -0.303113D+00  0.782663D-01  0.132266D+00 -0.235073D+00
     14  0.475861D-02  0.824003D-01  0.192014D-01 -0.622810D-01  0.764494D-01
     15  0.468441D-02  0.813937D-01 -0.621270D-01 -0.397895D-01  0.665778D-01
     16  0.467186D-02  0.812232D-01 -0.742748D-02  0.146273D-01  0.978261D-01
                6             7             8             9            10 
      6  0.100000D+01
      7  0.178573D+00  0.100000D+01
      8  0.178206D+00  0.180452D+00  0.100000D+01
      9  0.617791D-02  0.619365D-02  0.596725D-02  0.100000D+01
     10  0.106894D+00  0.107091D+00  0.104247D+00  0.248362D+00  0.100000D+01
     11  0.837598D-02 -0.256639D-01  0.805123D-01  0.000000D+00  0.000000D+00
     12 -0.202144D-01  0.834997D-01  0.533892D-01  0.000000D+00  0.000000D+00
     13 -0.134442D+00 -0.104795D+00 -0.918208D-01  0.000000D+00  0.000000D+00
     14  0.601836D-01  0.191112D-01  0.579829D-01  0.628765D-01  0.493124D+00
     15  0.612532D-01  0.605531D-01  0.188331D-01  0.629026D-01  0.493226D+00
     16  0.193329D-01  0.593713D-01  0.569902D-01  0.664299D-01  0.506776D+00
               11            12            13            14            15 
     11  0.100000D+01
     12  0.000000D+00  0.100000D+01
     13  0.000000D+00  0.000000D+00  0.100000D+01
     14  0.300203D+00 -0.349808D+00  0.847163D-01  0.100000D+01
     15 -0.443620D+00 -0.151354D+00  0.377859D-02  0.165833D+00  0.100000D+01
     16  0.604565D-01  0.361949D+00  0.304096D+00  0.169735D+00  0.171505D+00
               16 
     16  0.100000D+01
 *** Kinetic Energy *** 
                1             2             3             4             5 
      1  0.219908D+02
      2 -0.128416D+00  0.606994D+00
      3  0.000000D+00  0.000000D+00  0.189936D+01
      4  0.000000D+00  0.000000D+00  0.000000D+00  0.189936D+01
      5  0.000000D+00  0.000000D+00  0.000000D+00  0.000000D+00  0.189936D+01
      6 -0.849600D-02  0.103676D+00 -0.385070D-01 -0.189989D+00 -0.157683D+00
      7 -0.877060D-02  0.100778D+00 -0.157448D+00  0.181056D+00 -0.477491D-01
      8 -0.799397D-02  0.108507D+00  0.243126D+00  0.870535D-01 -0.129609D-01
      9  0.000000D+00 -0.107584D-01  0.225357D-02  0.380842D-02 -0.108167D-01
     10 -0.642284D-02  0.123499D-01 -0.163173D-01 -0.275755D-01  0.783201D-01
     11 -0.177210D-02  0.183178D-01  0.255558D-01 -0.154342D-01  0.438363D-01
     12 -0.299476D-02  0.309562D-01 -0.154342D-01  0.860574D-02  0.740811D-01
     13  0.850574D-02 -0.879220D-01  0.438363D-01  0.740811D-01 -0.175717D+00
     14 -0.192116D-02 -0.166652D-01 -0.870094D-03  0.282220D-02 -0.346423D-02
     15 -0.190953D-02 -0.166400D-01  0.295849D-02  0.189477D-02 -0.317043D-02
     16 -0.190755D-02 -0.166354D-01  0.356615D-03 -0.702299D-03 -0.469691D-02
                6             7             8             9            10 
      6  0.760032D+00
      7 -0.440248D-02  0.760032D+00
      8 -0.445050D-02 -0.415475D-02  0.760032D+00
      9 -0.245736D-02 -0.245994D-02 -0.242260D-02  0.158911D+02
     10 -0.146337D-01 -0.146255D-01 -0.147361D-01 -0.858900D-01  0.472250D+00
     11  0.106930D-03 -0.336379D-03  0.655282D-03  0.000000D+00  0.000000D+00
     12 -0.258061D-03  0.109444D-02  0.434530D-03  0.000000D+00  0.000000D+00
     13 -0.171632D-02 -0.137356D-02 -0.747322D-03  0.000000D+00  0.000000D+00
     14 -0.111877D-01 -0.681920D-02 -0.111039D-01 -0.103773D-01  0.108209D+00
     15 -0.112242D-01 -0.112007D-01 -0.675962D-02 -0.103707D-01  0.108267D+00
     16 -0.686624D-02 -0.111582D-01 -0.110621D-01 -0.938818D-02  0.116118D+00
               11            12            13            14            15 
     11  0.147773D+01
     12  0.000000D+00  0.147773D+01
     13  0.000000D+00  0.000000D+00  0.147773D+01
     14  0.168914D+00 -0.196825D+00  0.476670D-01  0.760032D+00
     15 -0.249682D+00 -0.851864D-01  0.212670D-02 -0.597298D-02  0.760032D+00
     16  0.353239D-01  0.211482D+00  0.177679D+00 -0.551215D-02 -0.529726D-02
               16 
     16  0.760032D+00
 Entering OneElI...
 Calculate potential energy integrals
    NBasis =  16  MinDer = 0  MaxDer = 0
 Requested accuracy = 0.1000D-12
 PrmmSu-InSpLW:  IPartL=    0 NPrtUS=    1 NPrtUL=    1 DoSpLW=F IThBeg=    0 IThEnd=    0 NThAct=    1.
 PrsmSu:  NPrtUS=   1 ThrOK=F IAlg=1 NPAlg=1 LenDen=           0 ISkipM=0 DoSpLW=F IThBeg=    0 IThEnd=    0.
 Prism:   IPart=     0 DynPar=F LinDyn=F Incr=          13.
 PRISM was handed   131061407 working-precision words and    55 shell-pairs
 IPart=  0 NShTot=        1375 NBatch=          55 AvBLen=        25.0
 PrSmSu:  NxtVal=             14.
 ***** Potential Energy ***** 
                1             2             3             4             5 
      1  0.504406D+02
      2  0.643294D+01  0.110915D+02
      3 -0.704418D-02 -0.928722D-01  0.109777D+02
      4 -0.127960D-01 -0.166566D+00  0.178784D-01  0.109864D+02
      5  0.353502D-01  0.460304D+00 -0.369135D-01 -0.607384D-01  0.111404D+02
      6  0.144958D+01  0.429952D+01 -0.586863D+00 -0.279017D+01 -0.210860D+01
      7  0.142205D+01  0.424238D+01 -0.232039D+01  0.257305D+01 -0.536374D+00
      8  0.149548D+01  0.437961D+01  0.339318D+01  0.116848D+01 -0.219805D-01
      9  0.000000D+00  0.437295D+00 -0.147784D+00 -0.249764D+00  0.709411D+00
     10  0.607308D+00  0.269858D+01 -0.560994D+00 -0.950115D+00  0.269635D+01
     11  0.196340D+00  0.663393D+00  0.108271D+01 -0.276727D+00  0.786628D+00
     12  0.331791D+00  0.111896D+01 -0.275800D+00  0.779001D+00  0.132681D+01
     13 -0.942373D+00 -0.317917D+01  0.784672D+00  0.132796D+01 -0.252162D+01
     14  0.132348D+00  0.764944D+00  0.130068D+00 -0.533006D+00  0.715664D+00
     15  0.130268D+00  0.755230D+00 -0.515161D+00 -0.353958D+00  0.635727D+00
     16  0.129919D+00  0.756956D+00 -0.815734D-01  0.775975D-01  0.889164D+00
                6             7             8             9            10 
      6  0.728844D+01
      7  0.142336D+01  0.723648D+01
      8  0.142987D+01  0.143997D+01  0.731262D+01
      9  0.134164D+00  0.134510D+00  0.129566D+00  0.382371D+02
     10  0.953381D+00  0.952216D+00  0.933583D+00  0.533081D+01  0.972199D+01
     11  0.999205D-01 -0.159052D+00  0.651497D+00  0.119697D-01  0.140714D+00
     12 -0.940176D-01  0.694729D+00  0.468293D+00  0.194328D-01  0.226717D+00
     13 -0.119701D+01 -0.967518D+00 -0.872506D+00 -0.528021D-01 -0.624617D+00
     14  0.451877D+00  0.171932D+00  0.437264D+00  0.136873D+01  0.412176D+01
     15  0.457870D+00  0.451893D+00  0.169710D+00  0.136913D+01  0.411329D+01
     16  0.174245D+00  0.445914D+00  0.431838D+00  0.144739D+01  0.425980D+01
               11            12            13            14            15 
     11  0.957819D+01
     12  0.230687D-01  0.960661D+01
     13 -0.556285D-01 -0.899605D-01  0.985038D+01
     14  0.238938D+01 -0.265686D+01  0.455611D+00  0.698091D+01
     15 -0.340873D+01 -0.110682D+01 -0.176506D+00  0.125879D+01  0.695175D+01
     16  0.525946D+00  0.292496D+01  0.218511D+01  0.129672D+01  0.130455D+01
               16 
     16  0.708153D+01
 ****** Core Hamiltonian ****** 
                1             2             3             4             5 
      1 -0.284498D+02
      2 -0.656135D+01 -0.104846D+02
      3  0.704418D-02  0.928722D-01 -0.907838D+01
      4  0.127960D-01  0.166566D+00 -0.178784D-01 -0.908702D+01
      5 -0.353502D-01 -0.460304D+00  0.369135D-01  0.607384D-01 -0.924103D+01
      6 -0.145808D+01 -0.419585D+01  0.548356D+00  0.260018D+01  0.195092D+01
      7 -0.143082D+01 -0.414161D+01  0.216294D+01 -0.239199D+01  0.488625D+00
      8 -0.150348D+01 -0.427110D+01 -0.315005D+01 -0.108143D+01  0.901957D-02
      9  0.000000D+00 -0.448053D+00  0.150037D+00  0.253572D+00 -0.720228D+00
     10 -0.613730D+00 -0.268623D+01  0.544677D+00  0.922539D+00 -0.261803D+01
     11 -0.198112D+00 -0.645075D+00 -0.105716D+01  0.261292D+00 -0.742792D+00
     12 -0.334786D+00 -0.108800D+01  0.260366D+00 -0.770395D+00 -0.125273D+01
     13  0.950879D+00  0.309124D+01 -0.740836D+00 -0.125388D+01  0.234590D+01
     14 -0.134270D+00 -0.781610D+00 -0.130938D+00  0.535828D+00 -0.719128D+00
     15 -0.132178D+00 -0.771870D+00  0.518119D+00  0.355853D+00 -0.638897D+00
     16 -0.131826D+00 -0.773591D+00  0.819300D-01 -0.782998D-01 -0.893861D+00
                6             7             8             9            10 
      6 -0.652841D+01
      7 -0.142776D+01 -0.647645D+01
      8 -0.143432D+01 -0.144413D+01 -0.655259D+01
      9 -0.136622D+00 -0.136970D+00 -0.131988D+00 -0.223460D+02
     10 -0.968015D+00 -0.966842D+00 -0.948319D+00 -0.541670D+01 -0.924974D+01
     11 -0.998136D-01  0.158716D+00 -0.650842D+00 -0.119697D-01 -0.140714D+00
     12  0.937596D-01 -0.693635D+00 -0.467859D+00 -0.194328D-01 -0.226717D+00
     13  0.119529D+01  0.966145D+00  0.871759D+00  0.528021D-01  0.624617D+00
     14 -0.463064D+00 -0.178751D+00 -0.448367D+00 -0.137911D+01 -0.401355D+01
     15 -0.469094D+00 -0.463094D+00 -0.176470D+00 -0.137950D+01 -0.400502D+01
     16 -0.181111D+00 -0.457072D+00 -0.442900D+00 -0.145678D+01 -0.414368D+01
               11            12            13            14            15 
     11 -0.810046D+01
     12 -0.230687D-01 -0.812888D+01
     13  0.556285D-01  0.899605D-01 -0.837265D+01
     14 -0.222046D+01  0.246003D+01 -0.407944D+00 -0.622088D+01
     15  0.315905D+01  0.102163D+01  0.178633D+00 -0.126476D+01 -0.619172D+01
     16 -0.490622D+00 -0.271348D+01 -0.200743D+01 -0.130223D+01 -0.130985D+01
               16 
     16 -0.632150D+01
 SVDSVc IOpt=   1 NormSV=T IR=1
 SVDSVc V= 2.45D+00 1.95D+00 1.61D+00 1.61D+00 1.35D+00 1.28D+00 1.27D+00 9.85D-01 9.67D-01 4.78D-01
 SVDSVc V= 4.19D-01 4.09D-01 3.58D-01 3.48D-01 2.96D-01 2.21D-01
 TstOVc:  Largest diagonal error= 2.44D-15 IB=1 I=    7.
 TstOVc:  Largest same sym error= 2.78D-15 IB=1 I=   12 J=   11.
 Orthogonalized basis functions: 
                 1             2             3             4             5 
      1   0.756307D-01  0.102067D+00  0.179007D-02  0.116096D-02  0.317145D-01
      2   0.293883D+00  0.277171D+00  0.326857D-02  0.187575D-02  0.418535D-01
      3  -0.132536D-01  0.309680D-01  0.170193D+00  0.353181D+00 -0.139917D+00
      4  -0.196893D-01  0.517308D-01  0.330234D+00 -0.175973D+00 -0.173009D+00
      5   0.561061D-01 -0.147200D+00  0.139696D+00  0.973127D-02  0.559557D+00
      6   0.183490D+00  0.207468D+00 -0.246217D+00  0.511836D-01 -0.129531D+00
      7   0.183190D+00  0.205226D+00  0.754275D-01 -0.243865D+00 -0.913458D-01
      8   0.182883D+00  0.212829D+00  0.180051D+00  0.185061D+00 -0.140859D+00
      9   0.856506D-01 -0.108100D+00 -0.259342D-03  0.139782D-02  0.552879D-01
     10   0.311438D+00 -0.263497D+00 -0.190190D-02  0.298168D-02  0.676392D-01
     11   0.127584D-01  0.418561D-01  0.190364D+00  0.419338D+00  0.134576D+00
     12   0.240602D-01  0.680183D-01  0.388600D+00 -0.218599D+00  0.175073D+00
     13  -0.664033D-01 -0.208805D+00  0.184914D+00  0.103383D-01 -0.500188D+00
     14   0.183259D+00 -0.210352D+00 -0.940369D-01  0.300891D+00 -0.681260D-01
     15   0.184144D+00 -0.211203D+00 -0.210593D+00 -0.222529D+00 -0.110073D+00
     16   0.186026D+00 -0.222265D+00  0.297722D+00 -0.706753D-01 -0.929034D-01
                 6             7             8             9            10 
      1  -0.232320D-03 -0.704474D-02  0.891077D+00  0.390901D+00 -0.593206D-01
      2  -0.853620D-03 -0.655106D-02  0.434800D-01 -0.984721D-02  0.143375D+00
      3   0.338287D+00 -0.356264D+00 -0.162294D-01  0.211146D-01 -0.117531D+00
      4   0.320174D+00  0.374026D+00 -0.202350D-01  0.473380D-01 -0.307544D+00
      5   0.197948D+00  0.136409D-01  0.631005D-01 -0.132895D+00  0.854429D+00
      6  -0.317012D+00 -0.183613D+00 -0.117961D+00 -0.472917D-01  0.245489D+00
      7  -0.152868D-01  0.377884D+00 -0.114792D+00 -0.455351D-01  0.287141D+00
      8   0.312826D+00 -0.162436D+00 -0.118717D+00 -0.467749D-01  0.202733D+00
      9   0.356354D-02 -0.599695D-02 -0.379415D+00  0.901005D+00  0.833149D-01
     10   0.497026D-02 -0.497463D-02 -0.245915D-01 -0.599427D-02 -0.177441D+00
     11  -0.277783D+00  0.278548D+00 -0.266201D-01 -0.871698D-02 -0.176226D+00
     12  -0.256151D+00 -0.292082D+00 -0.474110D-01 -0.192603D-01 -0.344088D+00
     13  -0.162320D+00 -0.300021D-02  0.128590D+00  0.396952D-01  0.856519D+00
     14  -0.991364D-02  0.329080D+00  0.549611D-01 -0.115847D+00 -0.229327D+00
     15   0.290577D+00 -0.144686D+00  0.547226D-01 -0.117362D+00 -0.205303D+00
     16  -0.273659D+00 -0.160290D+00  0.542201D-01 -0.116551D+00 -0.175046D+00
                11            12            13            14            15 
      1   0.884303D-02 -0.144661D-01 -0.771859D-02 -0.104239D-01 -0.311943D+00
      2  -0.243895D-01  0.428897D-01  0.274744D-01  0.414602D-01  0.135123D+01
      3   0.523802D+00 -0.782967D+00 -0.326359D+00  0.989708D-01  0.788818D-01
      4  -0.774449D+00 -0.467334D+00  0.547866D-01  0.282749D+00  0.634467D-01
      5  -0.214622D+00 -0.283153D+00 -0.484778D-01  0.615982D-01 -0.203886D+00
      6  -0.669635D+00 -0.693029D+00 -0.460973D-01  0.159451D+00 -0.562930D+00
      7   0.920779D+00 -0.241383D+00 -0.190809D+00 -0.101813D+00 -0.528539D+00
      8  -0.254548D+00  0.902599D+00  0.200491D+00 -0.153014D+00 -0.616795D+00
      9  -0.372525D-02 -0.332623D-02 -0.232673D-02 -0.226253D-01 -0.760996D-01
     10   0.820294D-02  0.103819D-01  0.876050D-02  0.728359D-01  0.354403D+00
     11   0.121809D+00 -0.218691D+00  0.102431D+01 -0.207240D+00 -0.748170D-01
     12  -0.124968D+00 -0.111222D+00 -0.282350D+00 -0.981327D+00 -0.579201D-01
     13  -0.716017D-01 -0.380450D-01  0.119052D+00 -0.418492D+00  0.359494D+00
     14  -0.205823D+00  0.722828D-01 -0.864230D+00 -0.537803D+00 -0.180999D+00
     15   0.824282D-01 -0.289385D+00  0.845925D+00 -0.526737D+00 -0.203126D+00
     16   0.150426D+00  0.167419D+00  0.234520D-02  0.981996D+00 -0.289881D+00
                16 
      1   0.123566D+00
      2  -0.609057D+00
      3   0.417158D-01
      4   0.677107D-01
      5  -0.212634D+00
      6   0.159371D+00
      7   0.157513D+00
      8   0.165074D+00
      9  -0.323455D+00
     10   0.159969D+01
     11  -0.102157D-01
     12   0.141458D-01
     13   0.111117D+00
     14  -0.634756D+00
     15  -0.636968D+00
     16  -0.723230D+00
 NBasis=    16 RedAO= T EigKep=  2.21D-01  NBF=    16
 NBsUse=    16 1.00D-06 EigRej= -1.00D+00 NBFU=    16
 Precomputing XC quadrature grid using
 IXCGrd= 4 IRadAn=           5 IRanWt=          -1 IRanGd=           0 AccXCQ= 0.00D+00.
 SetAtRh:  ITypeU=  23 NETotI=       0 ICharg=  1 NETot=       0.
 StAtR1:  I=    1 I1=    1 IA=  7 C=   7.0 OKShel=TTT
                                                  SSP
                                                  223
 StAtR1:  I=    2 I1=    2 IA=  1 C=   1.0 OKShel=T
                                                  S
                                                  1
 StAtR1:  I=    3 I1=    3 IA=  1 C=   1.0 OKShel=T
                                                  S
                                                  1
 StAtR1:  I=    4 I1=    4 IA=  1 C=   1.0 OKShel=T
                                                  S
                                                  1
 StAtR1:  I=    5 I1=    5 IA=  6 C=   6.0 OKShel=TTT
                                                  SSP
                                                  222
 StAtR1:  I=    6 I1=    6 IA=  1 C=   1.0 OKShel=T
                                                  S
                                                  1
 StAtR1:  I=    7 I1=    7 IA=  1 C=   1.0 OKShel=T
                                                  S
                                                  1
 StAtR1:  I=    8 I1=    8 IA=  1 C=   1.0 OKShel=T
                                                  S
                                                  1
          I=    1 IA=  7 I1=    1 NAtG= 0 NE=   7.000 C=   0.000 Err=-7.00D+00
          I=    2 IA=  1 I1=    2 NAtG= 0 NE=   1.000 C=   0.000 Err=-1.00D+00
          I=    3 IA=  1 I1=    3 NAtG= 0 NE=   1.000 C=   0.000 Err=-1.00D+00
          I=    4 IA=  1 I1=    4 NAtG= 0 NE=   1.000 C=   0.000 Err=-1.00D+00
          I=    5 IA=  6 I1=    5 NAtG= 0 NE=   6.000 C=   0.000 Err=-6.00D+00
          I=    6 IA=  1 I1=    6 NAtG= 0 NE=   1.000 C=   0.000 Err=-1.00D+00
          I=    7 IA=  1 I1=    7 NAtG= 0 NE=   1.000 C=   0.000 Err=-1.00D+00
          I=    8 IA=  1 I1=    8 NAtG= 0 NE=   1.000 C=   0.000 Err=-1.00D+00
 Generated NRdTot=       0 NPtTot=           0 NUsed=           0 NTot=          32
 NSgBfM=    16    16    16    16    16 MxSgAt=     8 MxSgA2=     8.
 IGWInf( 1) =          32 (NGWInf)
 IGWInf( 2) =           8 (NAtomA)
 IGWInf( 3) =           5 (IRadAn)
 IGWInf( 4) =          -1 (IRanWt)
 IGWInf( 5) =           0 (IRanGd)
 IGWInf( 6) =           2 (IRType)
 IGWInf( 7) =           0 (NRdTot)
 IGWInf( 8) =           0 (NGWTot)
 IGWInf( 9) =      173132 (LGWBtD)
 IGWInf(10) =           0 (NAtBtD)
 IGWInf(11) =           0 (NIRBtD)
 IGWInf(12) =           0 (NRRBtD)
 IGWInf(13) =           1 (NClRep)
 IGWInf(14) =           0 (ICntr3)
 IGWInf(15) =           0 (IPFlag)
 IGWInf(16) =           0 (IGet)  
 IGWInf(17) =           0         
 IGWInf(18) =          16         
 IGWInf(19) =          16         
 IGWInf(20) =          16         
 IGWInf(21) =          16         
 IGWInf(22) =          16         
 IGWInf(23) =           8         
 IGWInf(24) =           8         
 IGWInf(25) =           0         
 IGWInf(26) =           0         
 IGWInf(27) =           0         
 IGWInf(28) =           0         
 IGWInf(29) =           0         
 IGWInf(30) =           0         
 IGWInf(31) =           0         
 IGWInf(32) =           0         
 IAtBtD: 
              1            2            3            4            5
              6            7            8
 Leave Link  302 at Fri May 22 12:39:31 2026, MaxMem=   131072000 cpu:               0.1 elap:               0.1
 (Enter /afs/math/software/gaussian/g16.A03/g16/l303.exe)
 DipDrv:  MaxL=1.
 DipPsm:  J= 1 NJ= 4 MaxL=1 MMat= 4 MaxMat= 4.
 DipInt: DoE/N= T F RetVal/Mat= F T Init=T NMatP=  4 IDeriv=0 Min/MaxMlt=  0  1
 Entering OneElI...
 Multipole integrals L=0 to 1 MinM= 0 MaxM= 3.
 Requested accuracy = 0.1000D-12
 PrmmSu-InSpLW:  IPartL=    0 NPrtUS=    1 NPrtUL=    1 DoSpLW=F IThBeg=    0 IThEnd=    0 NThAct=    1.
 PrsmSu:  NPrtUS=   1 ThrOK=F IAlg=1 NPAlg=1 LenDen=           0 ISkipM=0 DoSpLW=F IThBeg=    0 IThEnd=    0.
 Prism:   IPart=     0 DynPar=F LinDyn=F Incr=           1.
 PRISM was handed   131062703 working-precision words and    55 shell-pairs
 IPart=  0 NShTot=          55 NBatch=           6 AvBLen=         9.2
 PrSmSu:  NxtVal=              2.
 Multipole matrices IBuc=  518 IX=    1 IJ=           1:
                1             2             3             4             5 
      1  0.904453D+02
      2  0.212581D+02  0.904453D+02
      3  0.579343D-01  0.739815D+00  0.904453D+02
      4  0.000000D+00  0.000000D+00  0.000000D+00  0.904453D+02
      5  0.000000D+00  0.000000D+00  0.000000D+00  0.000000D+00  0.904453D+02
      6  0.469432D+01  0.419232D+02 -0.555419D+01 -0.289733D+02 -0.240466D+02
      7  0.460409D+01  0.412722D+02 -0.239136D+02  0.278612D+02 -0.734772D+01
      8  0.484676D+01  0.431252D+02  0.369702D+02  0.131217D+02 -0.195361D+01
      9  0.000000D+00  0.181686D+01 -0.608226D+00 -0.103010D+01  0.292570D+01
     10  0.196738D+01  0.238683D+02 -0.477019D+01 -0.837429D+01  0.237847D+02
     11  0.636304D+00  0.586349D+01  0.112169D+02 -0.254502D+01  0.722839D+01
     12  0.107366D+01  0.962343D+01 -0.241347D+01  0.848039D+01  0.119289D+02
     13 -0.304941D+01 -0.273326D+02  0.685475D+01  0.119289D+02 -0.212002D+02
     14  0.430487D+00  0.747822D+01  0.180139D+01 -0.565240D+01  0.693827D+01
     15  0.423382D+00  0.727915D+01 -0.549774D+01 -0.355821D+01  0.595379D+01
     16  0.422512D+00  0.733639D+01 -0.612958D+00  0.132119D+01  0.883597D+01
                6             7             8             9            10 
      6  0.901361D+02
      7  0.160073D+02  0.891441D+02
      8  0.162564D+02  0.163718D+02  0.923091D+02
      9  0.555396D+00  0.556593D+00  0.536917D+00  0.898916D+02
     10  0.962128D+01  0.958842D+01  0.949081D+01  0.223257D+02  0.898916D+02
     11  0.830751D+00 -0.222096D+01  0.740369D+01  0.718555D-01  0.838744D+00
     12 -0.181943D+01  0.747658D+01  0.485981D+01  0.000000D+00  0.000000D+00
     13 -0.121007D+02 -0.938338D+01 -0.835809D+01  0.000000D+00  0.000000D+00
     14  0.545691D+01  0.172335D+01  0.532037D+01  0.565737D+01  0.446677D+02
     15  0.545417D+01  0.536180D+01  0.169742D+01  0.564659D+01  0.438344D+02
     16  0.174269D+01  0.532236D+01  0.519909D+01  0.597259D+01  0.456228D+02
               11            12            13            14            15 
     11  0.898916D+02
     12  0.000000D+00  0.898916D+02
     13  0.000000D+00  0.000000D+00  0.898916D+02
     14  0.275427D+02 -0.316798D+02  0.767219D+01  0.912060D+02
     15 -0.390820D+02 -0.134553D+02  0.335913D+00  0.148550D+02  0.879499D+02
     16  0.580804D+01  0.325834D+02  0.273754D+02  0.153909D+02  0.152722D+02
               16 
     16  0.901463D+02
 Multipole matrices IBuc=  518 IX=    2 IJ=           1:
                1             2             3             4             5 
      1  0.161829D+03
      2  0.380358D+02  0.161829D+03
      3  0.000000D+00  0.000000D+00  0.161829D+03
      4  0.579343D-01  0.739815D+00  0.000000D+00  0.161829D+03
      5  0.000000D+00  0.000000D+00  0.000000D+00  0.000000D+00  0.161829D+03
      6  0.839686D+01  0.747957D+02 -0.104769D+02 -0.513738D+02 -0.429022D+02
      7  0.824711D+01  0.746818D+02 -0.438403D+02  0.507285D+02 -0.132954D+02
      8  0.866510D+01  0.765608D+02  0.650604D+02  0.236191D+02 -0.346834D+01
      9  0.143428D-05  0.325185D+01 -0.109097D+01 -0.184237D+01  0.523645D+01
     10  0.352016D+01  0.427125D+02 -0.886756D+01 -0.148006D+02  0.425626D+02
     11  0.113676D+01  0.101906D+02  0.200601D+02 -0.440498D+01  0.126318D+02
     12  0.192204D+01  0.173905D+02 -0.448283D+01  0.151879D+02  0.215167D+02
     13 -0.545621D+01 -0.489128D+02  0.126318D+02  0.211431D+02 -0.379383D+02
     14  0.769776D+00  0.132520D+02  0.308796D+01 -0.995726D+01  0.122946D+02
     15  0.757879D+00  0.131190D+02 -0.100134D+02 -0.635507D+01  0.107307D+02
     16  0.756111D+00  0.131637D+02 -0.120376D+01  0.242855D+01  0.158546D+02
                6             7             8             9            10 
      6  0.160303D+03
      7  0.288957D+02  0.163325D+03
      8  0.287623D+02  0.293976D+02  0.162496D+03
      9  0.993852D+00  0.997050D+00  0.960427D+00  0.160893D+03
     10  0.171684D+02  0.173541D+02  0.168521D+02  0.399597D+02  0.160893D+03
     11  0.134531D+01 -0.415848D+01  0.130144D+02  0.000000D+00  0.000000D+00
     12 -0.316989D+01  0.136069D+02  0.870508D+01  0.718555D-01  0.838744D+00
     13 -0.215935D+02 -0.169806D+02 -0.148424D+02  0.000000D+00  0.000000D+00
     14  0.961927D+01  0.308346D+01  0.933111D+01  0.101102D+02  0.789439D+02
     15  0.981685D+01  0.979614D+01  0.303896D+01  0.101179D+02  0.791851D+02
     16  0.311956D+01  0.966988D+01  0.925844D+01  0.106947D+02  0.819428D+02
               11            12            13            14            15 
     11  0.160893D+03
     12  0.000000D+00  0.160893D+03
     13  0.000000D+00  0.000000D+00  0.160893D+03
     14  0.480655D+02 -0.556524D+02  0.135639D+02  0.159361D+03
     15 -0.712250D+02 -0.239451D+02  0.606668D+00  0.264994D+02  0.160230D+03
     16  0.977420D+01  0.588831D+02  0.491642D+02  0.273085D+02  0.276678D+02
               16 
     16  0.162418D+03
 Multipole matrices IBuc=  518 IX=    3 IJ=           1:
                1             2             3             4             5 
      1  0.587677D+02
      2  0.138126D+02  0.587677D+02
      3  0.000000D+00  0.000000D+00  0.587677D+02
      4  0.000000D+00  0.000000D+00  0.000000D+00  0.587677D+02
      5  0.579343D-01  0.739815D+00  0.000000D+00  0.000000D+00  0.587677D+02
      6  0.304753D+01  0.270045D+02 -0.378266D+01 -0.186632D+02 -0.151716D+02
      7  0.299265D+01  0.269155D+02 -0.158004D+02  0.181695D+02 -0.447699D+01
      8  0.314583D+01  0.277260D+02  0.235613D+02  0.843636D+01 -0.932455D+00
      9  0.000000D+00  0.123782D+01 -0.415140D+00 -0.701565D+00  0.199391D+01
     10  0.128068D+01  0.158617D+02 -0.328790D+01 -0.555638D+01  0.159665D+02
     11  0.413725D+00  0.379387D+01  0.745347D+01 -0.165338D+01  0.473845D+01
     12  0.699174D+00  0.641145D+01 -0.165338D+01  0.563770D+01  0.800773D+01
     13 -0.198482D+01 -0.180409D+02  0.466060D+01  0.787618D+01 -0.141421D+02
     14  0.280024D+00  0.494399D+01  0.115221D+01 -0.373725D+01  0.464618D+01
     15  0.275615D+00  0.487177D+01 -0.371893D+01 -0.238180D+01  0.404339D+01
     16  0.275029D+00  0.490327D+01 -0.448443D+00  0.883142D+00  0.596429D+01
                6             7             8             9            10 
      6  0.575014D+02
      7  0.103461D+02  0.583731D+02
      8  0.103511D+02  0.105602D+02  0.586684D+02
      9  0.378619D+00  0.379776D+00  0.365957D+00  0.614254D+02
     10  0.636623D+01  0.642240D+01  0.626676D+01  0.152558D+02  0.614254D+02
     11  0.499051D+00 -0.153960D+01  0.484133D+01  0.000000D+00  0.000000D+00
     12 -0.120440D+01  0.500921D+01  0.321038D+01  0.000000D+00  0.000000D+00
     13 -0.793338D+01 -0.620974D+01 -0.544635D+01  0.718555D-01  0.838744D+00
     14  0.358988D+01  0.114829D+01  0.349245D+01  0.386371D+01  0.303863D+02
     15  0.364283D+01  0.362759D+01  0.113102D+01  0.386388D+01  0.303009D+02
     16  0.116198D+01  0.359432D+01  0.345859D+01  0.408604D+01  0.314702D+02
               11            12            13            14            15 
     11  0.614254D+02
     12  0.000000D+00  0.614254D+02
     13  0.000000D+00  0.000000D+00  0.614254D+02
     14  0.184970D+02 -0.215534D+02  0.557514D+01  0.617963D+02
     15 -0.272533D+02 -0.929827D+01  0.587562D+00  0.102185D+02  0.614419D+02
     16  0.375320D+01  0.224702D+02  0.192442D+02  0.105662D+02  0.106460D+02
               16 
     16  0.627063D+02
 Fermi contact integrals: 
                 1             2             3             4             5 
      1   0.783766D+01  0.000000D+00  0.000000D+00  0.000000D+00  0.000000D+00
      2   0.260206D+00  0.692234D-01  0.677704D-01  0.716538D-01  0.186738D-01
      3   0.000000D+00 -0.180463D-01 -0.736584D-01  0.114317D+00 -0.641871D-02
      4   0.000000D+00 -0.890383D-01  0.847027D-01  0.409323D-01 -0.108473D-01
      5   0.000000D+00 -0.738982D-01 -0.223383D-01 -0.609417D-02  0.308085D-01
      6   0.640043D-01  0.628247D+00  0.136057D-01  0.135649D-01  0.580171D-02
      7   0.627645D-01  0.136057D-01  0.628247D+00  0.138147D-01  0.581690D-02
      8   0.660814D-01  0.135649D-01  0.138147D-01  0.628247D+00  0.559847D-02
      9   0.000000D+00  0.000000D+00  0.000000D+00  0.000000D+00  0.614289D+01
     10   0.266027D-01  0.481772D-02  0.483426D-02  0.459773D-02  0.215555D+00
     11   0.861650D-02  0.623876D-03 -0.191417D-02  0.588574D-02  0.000000D+00
     12   0.145614D-01 -0.150565D-02  0.622790D-02  0.390295D-02  0.000000D+00
     13  -0.413575D-01 -0.100138D-01 -0.781624D-02 -0.671244D-02  0.000000D+00
     14   0.576911D-02  0.263048D-02  0.396652D-03  0.247960D-02  0.603575D-01
     15   0.567732D-02  0.270482D-02  0.265609D-02  0.386834D-03  0.603836D-01
     16   0.566179D-02  0.404545D-03  0.257446D-02  0.241248D-02  0.639364D-01
                 6             7             8 
      1   0.000000D+00  0.000000D+00  0.000000D+00
      2   0.211246D-02  0.205624D-02  0.204679D-02
      3   0.962128D-03 -0.307224D-02 -0.366469D-03
      4  -0.312072D-02 -0.196763D-02  0.721706D-03
      5   0.383066D-02  0.329234D-02  0.482671D-02
      6   0.263048D-02  0.270482D-02  0.404545D-03
      7   0.396652D-03  0.265609D-02  0.257446D-02
      8   0.247960D-02  0.386834D-03  0.241248D-02
      9   0.000000D+00  0.000000D+00  0.000000D+00
     10   0.753900D-01  0.754207D-01  0.795664D-01
     11   0.837584D-01 -0.123812D+00  0.175909D-01
     12  -0.975985D-01 -0.422421D-01  0.105316D+00
     13   0.236364D-01  0.105458D-02  0.884822D-01
     14   0.628247D+00  0.122150D-01  0.126361D-01
     15   0.122150D-01  0.628247D+00  0.128285D-01
     16   0.126361D-01  0.128285D-01  0.628247D+00
 Leave Link  303 at Fri May 22 12:39:31 2026, MaxMem=   131072000 cpu:               0.0 elap:               0.0
 (Enter /afs/math/software/gaussian/g16.A03/g16/l401.exe)
 Initial guess from the checkpoint file:  "test.3.chk"
 B after Tr=     0.264992    0.656408   -2.163462
         Rot=    0.999982   -0.005635    0.001912   -0.000095 Ang=  -0.68 deg.
 Guess basis will be translated and rotated to current coordinates.
 JPrj=2 DoOrth=T DoCkMO=T.
 Leave Link  401 at Fri May 22 12:39:31 2026, MaxMem=   131072000 cpu:               0.1 elap:               0.0
 (Enter /afs/math/software/gaussian/g16.A03/g16/l502.exe)
 Keep J ints in memory in canonical form, NReq=871357.
 FoFCou: FMM=F IPFlag=           0 FMFlag=           0 FMFlg1=           0
         NFxFlg=           0 DoJE=F BraDBF=F KetDBF=F FulRan=T
         wScrn=  0.000000 ICntrl=       600 IOpCl=  0 I1Cent=           0 NGrid=           0
         NMat0=    1 NMatS0=    136 NMatT0=    0 NMatD0=    1 NMtDS0=    0 NMtDT0=    0
 Symmetry not used in FoFCou.
 Two-electron integral symmetry not used.
 Closed shell SCF:
 Using DIIS extrapolation, IDIIS=  1040.
 NGot=   131072000 LenX=   131061156 LenY=   131060274
 Requested convergence on RMS density matrix=1.00D-08 within 128 cycles.
 Requested convergence on MAX density matrix=1.00D-06.
 Requested convergence on             energy=1.00D-06.
 No special actions if energy rises.

 Cycle   1  Pass 1  IDiag  1:
 E= -95.7866496940835    
 DIIS: error= 3.55D-03 at cycle   1 NSaved=   1.
 NSaved= 1 IEnMin= 1 EnMin= -95.7866496940835     IErMin= 1 ErrMin= 3.55D-03
 ErrMax= 3.55D-03  0.00D+00 EMaxC= 1.00D-01 BMatC= 4.50D-04 BMatP= 4.50D-04
 IDIUse=3 WtCom= 9.65D-01 WtEn= 3.55D-02
 Coeff-Com:  0.100D+01
 Coeff-En:   0.100D+01
 Coeff:      0.100D+01
 Gap=     0.509 Goal=   None    Shift=    0.000
 GapD=    0.509 DampG=2.000 DampE=1.000 DampFc=2.0000 IDamp=-1.
 RMSDP=2.62D-03 MaxDP=1.22D-02              OVMax= 0.00D+00

 Cycle   2  Pass 1  IDiag  1:
 E= -95.7870842547684     Delta-E=       -0.000434560685 Rises=F Damp=F
 DIIS: error= 2.31D-03 at cycle   2 NSaved=   2.
 NSaved= 2 IEnMin= 2 EnMin= -95.7870842547684     IErMin= 2 ErrMin= 2.31D-03
 ErrMax= 2.31D-03  0.00D+00 EMaxC= 1.00D-01 BMatC= 1.70D-04 BMatP= 4.50D-04
 IDIUse=3 WtCom= 9.77D-01 WtEn= 2.31D-02
 Coeff-Com:  0.343D+00 0.657D+00
 Coeff-En:   0.000D+00 0.100D+01
 Coeff:      0.335D+00 0.665D+00
 Gap=     0.504 Goal=   None    Shift=    0.000
 RMSDP=1.41D-03 MaxDP=8.19D-03 DE=-4.35D-04 OVMax= 0.00D+00

 Cycle   3  Pass 1  IDiag  1:
 E= -95.7872266602221     Delta-E=       -0.000142405454 Rises=F Damp=F
 DIIS: error= 1.40D-03 at cycle   3 NSaved=   3.
 NSaved= 3 IEnMin= 3 EnMin= -95.7872266602221     IErMin= 3 ErrMin= 1.40D-03
 ErrMax= 1.40D-03  0.00D+00 EMaxC= 1.00D-01 BMatC= 4.52D-05 BMatP= 1.70D-04
 IDIUse=3 WtCom= 9.86D-01 WtEn= 1.40D-02
 Coeff-Com:  0.191D-01 0.342D+00 0.639D+00
 Coeff-En:   0.000D+00 0.206D+00 0.794D+00
 Coeff:      0.189D-01 0.340D+00 0.641D+00
 Gap=     0.505 Goal=   None    Shift=    0.000
 RMSDP=5.11D-04 MaxDP=3.04D-03 DE=-1.42D-04 OVMax= 0.00D+00

 Cycle   4  Pass 1  IDiag  1:
 E= -95.7872762898831     Delta-E=       -0.000049629661 Rises=F Damp=F
 DIIS: error= 3.01D-04 at cycle   4 NSaved=   4.
 NSaved= 4 IEnMin= 4 EnMin= -95.7872762898831     IErMin= 4 ErrMin= 3.01D-04
 ErrMax= 3.01D-04  0.00D+00 EMaxC= 1.00D-01 BMatC= 1.12D-06 BMatP= 4.52D-05
 IDIUse=3 WtCom= 9.97D-01 WtEn= 3.01D-03
 Coeff-Com:  0.476D-02 0.156D+00 0.319D+00 0.521D+00
 Coeff-En:   0.000D+00 0.000D+00 0.000D+00 0.100D+01
 Coeff:      0.475D-02 0.155D+00 0.318D+00 0.522D+00
 Gap=     0.505 Goal=   None    Shift=    0.000
 RMSDP=8.86D-05 MaxDP=4.84D-04 DE=-4.96D-05 OVMax= 0.00D+00

 Cycle   5  Pass 1  IDiag  1:
 E= -95.7872776153709     Delta-E=       -0.000001325488 Rises=F Damp=F
 DIIS: error= 2.52D-05 at cycle   5 NSaved=   5.
 NSaved= 5 IEnMin= 5 EnMin= -95.7872776153709     IErMin= 5 ErrMin= 2.52D-05
 ErrMax= 2.52D-05  0.00D+00 EMaxC= 1.00D-01 BMatC= 1.26D-08 BMatP= 1.12D-06
 IDIUse=1 WtCom= 1.00D+00 WtEn= 0.00D+00
 Coeff-Com:  0.419D-03 0.310D-01 0.677D-01 0.160D+00 0.740D+00
 Coeff:      0.419D-03 0.310D-01 0.677D-01 0.160D+00 0.740D+00
 Gap=     0.505 Goal=   None    Shift=    0.000
 RMSDP=1.04D-05 MaxDP=6.93D-05 DE=-1.33D-06 OVMax= 0.00D+00

 Cycle   6  Pass 1  IDiag  1:
 E= -95.7872776309915     Delta-E=       -0.000000015621 Rises=F Damp=F
 DIIS: error= 6.21D-07 at cycle   6 NSaved=   6.
 NSaved= 6 IEnMin= 6 EnMin= -95.7872776309915     IErMin= 6 ErrMin= 6.21D-07
 ErrMax= 6.21D-07  0.00D+00 EMaxC= 1.00D-01 BMatC= 9.18D-12 BMatP= 1.26D-08
 IDIUse=1 WtCom= 1.00D+00 WtEn= 0.00D+00
 Coeff-Com:  0.423D-04 0.368D-02 0.808D-02 0.196D-01 0.101D+00 0.868D+00
 Coeff:      0.423D-04 0.368D-02 0.808D-02 0.196D-01 0.101D+00 0.868D+00
 Gap=     0.505 Goal=   None    Shift=    0.000
 RMSDP=4.28D-07 MaxDP=2.29D-06 DE=-1.56D-08 OVMax= 0.00D+00

 Cycle   7  Pass 1  IDiag  1:
 E= -95.7872776310083     Delta-E=       -0.000000000017 Rises=F Damp=F
 DIIS: error= 8.92D-08 at cycle   7 NSaved=   7.
 NSaved= 7 IEnMin= 7 EnMin= -95.7872776310083     IErMin= 7 ErrMin= 8.92D-08
 ErrMax= 8.92D-08  0.00D+00 EMaxC= 1.00D-01 BMatC= 2.24D-13 BMatP= 9.18D-12
 IDIUse=1 WtCom= 1.00D+00 WtEn= 0.00D+00
 Coeff-Com:  0.217D-05 0.258D-03 0.565D-03 0.138D-02 0.857D-02 0.161D+00
 Coeff-Com:  0.828D+00
 Coeff:      0.217D-05 0.258D-03 0.565D-03 0.138D-02 0.857D-02 0.161D+00
 Coeff:      0.828D+00
 Gap=     0.505 Goal=   None    Shift=    0.000
 RMSDP=6.32D-08 MaxDP=3.08D-07 DE=-1.69D-11 OVMax= 0.00D+00

 Cycle   8  Pass 1  IDiag  1:
 E= -95.7872776310087     Delta-E=       -0.000000000000 Rises=F Damp=F
 DIIS: error= 7.61D-09 at cycle   8 NSaved=   8.
 NSaved= 8 IEnMin= 8 EnMin= -95.7872776310087     IErMin= 8 ErrMin= 7.61D-09
 ErrMax= 7.61D-09  0.00D+00 EMaxC= 1.00D-01 BMatC= 2.57D-15 BMatP= 2.24D-13
 IDIUse=1 WtCom= 1.00D+00 WtEn= 0.00D+00
 Coeff-Com: -0.282D-07 0.947D-05 0.204D-04 0.453D-04 0.554D-03 0.218D-01
 Coeff-Com:  0.164D+00 0.813D+00
 Coeff:     -0.282D-07 0.947D-05 0.204D-04 0.453D-04 0.554D-03 0.218D-01
 Coeff:      0.164D+00 0.813D+00
 Gap=     0.505 Goal=   None    Shift=    0.000
 RMSDP=6.63D-09 MaxDP=3.02D-08 DE=-3.98D-13 OVMax= 0.00D+00

 SCF Done:  E(RB-P86) =  -95.7872776310     A.U. after    8 cycles
            NFock=  8  Conv=0.66D-08     -V/T= 2.0342
 KE= 9.262258155004D+01 PE=-3.064966362867D+02 EE= 7.288097007686D+01
 Leave Link  502 at Fri May 22 12:39:34 2026, MaxMem=   131072000 cpu:               2.8 elap:               2.8
 (Enter /afs/math/software/gaussian/g16.A03/g16/l601.exe)
 Copying SCF densities to generalized density rwf, IOpCl= 0 IROHF=0.

 **********************************************************************

            Population analysis using the SCF density.

 **********************************************************************

 Alpha  occ. eigenvalues --  -14.21074  -9.97676  -1.06554  -0.79062  -0.68337
 Alpha  occ. eigenvalues --   -0.67064  -0.57335  -0.51627  -0.49678
 Alpha virt. eigenvalues --    0.00790   0.03846   0.06551   0.07358   0.22721
 Alpha virt. eigenvalues --    0.23403   0.25779
     Molecular Orbital Coefficients:
                           1         2         3         4         5
                           O         O         O         O         O
     Eigenvalues --   -14.21074  -9.97676  -1.06554  -0.79062  -0.68337
   1 1   N  1S          0.99207   0.00085  -0.22605   0.05713   0.00036
   2        2S          0.03844  -0.00643   0.77696  -0.23044  -0.00283
   3        2PX         0.00010   0.00104   0.00594  -0.06657   0.48125
   4        2PY         0.00001   0.00176  -0.00812  -0.09135   0.37632
   5        2PZ        -0.00011  -0.00511   0.00391   0.29630   0.20400
   6 2   H  1S         -0.00744  -0.00031   0.10525  -0.09763  -0.29961
   7 3   H  1S         -0.00730  -0.00034   0.09235  -0.07948  -0.04174
   8 4   H  1S         -0.00762  -0.00030   0.10755  -0.09829   0.34694
   9 5   C  1S          0.00058   0.99015  -0.07092  -0.20960   0.00238
  10        2S         -0.00580   0.04670   0.16619   0.61842  -0.00879
  11        2PX        -0.00098   0.00018   0.01821   0.02285   0.12180
  12        2PY        -0.00160   0.00030   0.02479   0.01870   0.10102
  13        2PZ         0.00455   0.00000  -0.06971  -0.01205   0.07374
  14 6   H  1S          0.00051  -0.00970   0.02138   0.15058   0.00513
  15 7   H  1S          0.00051  -0.00962   0.01956   0.13525  -0.07146
  16 8   H  1S          0.00051  -0.01009   0.02474   0.18454   0.07874
                           6         7         8         9        10
                           O         O         O         O         V
     Eigenvalues --    -0.67064  -0.57335  -0.51627  -0.49678   0.00790
   1 1   N  1S         -0.00627  -0.02905  -0.00584  -0.00221  -0.19554
   2        2S          0.02801   0.13787   0.02819   0.01130   1.25377
   3        2PX        -0.42748  -0.07843  -0.04520  -0.19410   0.00282
   4        2PY         0.48573  -0.16858  -0.22789   0.06010  -0.14491
   5        2PZ         0.08343   0.58683   0.00663  -0.01643   0.10767
   6 2   H  1S         -0.21701  -0.14064   0.17000  -0.00190  -0.62830
   7 3   H  1S          0.36187  -0.09706  -0.10931   0.15518  -0.43492
   8 4   H  1S         -0.14571  -0.08249  -0.10053  -0.15479  -0.54243
   9 5   C  1S          0.00511   0.04784   0.01822   0.00757   0.04747
  10        2S         -0.01741  -0.13677  -0.07002  -0.02540  -0.22989
  11        2PX        -0.11292   0.06274   0.13298   0.57918  -0.13190
  12        2PY         0.14276   0.07906   0.53580  -0.13997  -0.25372
  13        2PZ         0.01866  -0.43771   0.13615   0.05814   0.62773
  14 6   H  1S         -0.09754  -0.13133  -0.25591   0.37697  -0.06037
  15 7   H  1S          0.02360  -0.11673  -0.24120  -0.38331  -0.04212
  16 8   H  1S          0.05569  -0.24508   0.43019  -0.00781  -0.00690
                          11        12        13        14        15
                           V         V         V         V         V
     Eigenvalues --     0.03846   0.06551   0.07358   0.22721   0.23403
   1 1   N  1S          0.03380  -0.02514   0.00153  -0.00810  -0.00944
   2        2S         -0.25672   0.16512  -0.02168   0.05212   0.06282
   3        2PX        -0.08989  -0.14048  -0.93419   0.07436   0.24431
   4        2PY        -0.18389   0.89688  -0.13325   0.25370  -0.08487
   5        2PZ         0.89865   0.19986  -0.11142   0.10717   0.03892
   6 2   H  1S          0.56170   0.78035  -0.32029   0.15353  -0.02931
   7 3   H  1S          0.40158  -0.86428  -0.56626  -0.10425   0.11963
   8 4   H  1S          0.31638  -0.23778   0.99851  -0.13215  -0.16858
   9 5   C  1S          0.09115  -0.00839   0.01160   0.06241   0.06180
  10        2S         -0.49210   0.05315  -0.06628  -0.40997  -0.39335
  11        2PX        -0.13742  -0.01704  -0.17260  -0.20471  -0.95268
  12        2PY        -0.24377   0.15717  -0.05835  -0.91603   0.40513
  13        2PZ         0.68392   0.06035   0.03039  -0.53255  -0.17324
  14 6   H  1S          0.02290   0.14668   0.13564  -0.25399   1.08533
  15 7   H  1S          0.03326   0.02565  -0.21951  -0.29265  -0.57238
  16 8   H  1S          0.01073  -0.22459   0.10331   1.17700   0.10837
                          16
                           V
     Eigenvalues --     0.25779
   1 1   N  1S          0.03016
   2        2S         -0.19491
   3        2PX         0.10745
   4        2PY         0.06276
   5        2PZ        -0.04618
   6 2   H  1S          0.11602
   7 3   H  1S          0.10331
   8 4   H  1S          0.01107
   9 5   C  1S         -0.21272
  10        2S          1.35330
  11        2PX        -0.42172
  12        2PY        -0.28504
  13        2PZ         0.20921
  14 6   H  1S         -0.57839
  15 7   H  1S         -1.08222
  16 8   H  1S         -0.45660
          Condensed to atoms (all electrons):
               1          2          3          4          5          6
     1  N    6.122665   0.325306   0.320606   0.327440   0.279361  -0.020134
     2  H    0.325306   0.412410  -0.019184  -0.020155  -0.020967  -0.002236
     3  H    0.320606  -0.019184   0.386090  -0.019645  -0.019904   0.002053
     4  H    0.327440  -0.020155  -0.019645   0.407509  -0.020373  -0.002122
     5  C    0.279361  -0.020967  -0.019904  -0.020373   4.743952   0.384911
     6  H   -0.020134  -0.002236   0.002053  -0.002122   0.384911   0.515208
     7  H   -0.018599  -0.002293  -0.002326   0.002026   0.385727  -0.016329
     8  H   -0.020336   0.002186  -0.002371  -0.002063   0.390057  -0.019505
               7          8
     1  N   -0.018599  -0.020336
     2  H   -0.002293   0.002186
     3  H   -0.002326  -0.002371
     4  H    0.002026  -0.002063
     5  C    0.385727   0.390057
     6  H   -0.016329  -0.019505
     7  H    0.486328  -0.017469
     8  H   -0.017469   0.578511
 Mulliken charges:
               1
     1  N   -0.316310
     2  H    0.324933
     3  H    0.354682
     4  H    0.327383
     5  C   -0.122766
     6  H    0.158153
     7  H    0.182934
     8  H    0.090990
 Sum of Mulliken charges =   1.00000
 Mulliken charges with hydrogens summed into heavy atoms:
               1
     1  N    0.690689
     5  C    0.309311
 Electronic spatial extent (au):  <R**2>=         680137.1855
 Charge=              1.0000 electrons
 Dipole moment (field-independent basis, Debye):
    X=            229.3775    Y=            410.9088    Z=            150.0276  Tot=            493.9316
 Quadrupole moment (field-independent basis, Debye-Ang):
   XX=          10944.0971   YY=          35142.8963   ZZ=           4676.2273
   XY=          19623.1121   XZ=           7164.2354   YZ=          12833.9936
 Traceless Quadrupole moment (field-independent basis, Debye-Ang):
   XX=          -5976.9765   YY=          18221.8228   ZZ=         -12244.8463
   XY=          19623.1121   XZ=           7164.2354   YZ=          12833.9936
 Octapole moment (field-independent basis, Debye-Ang**2):
  XXX=         521698.1480  YYY=        3004748.9938  ZZZ=         145423.3382  XYY=        1678273.3345
  XXY=         936269.4984  XXZ=         341797.1303  XZZ=         223291.8175  YZZ=         400002.5587
  YYZ=        1097556.8530  XYZ=         612862.8311
 Hexadecapole moment (field-independent basis, Debye-Ang**3):
 XXXX=       24846688.3003 YYYY=      256837306.1957 ZZZZ=        4511289.8173 XXXY=       44631901.2299
 XXXZ=       16291754.4493 YYYX=      143494782.7171 YYYZ=       93835620.1766 ZZZX=        6943681.9623
 ZZZY=       12438799.5870 XXYY=       80075470.0612 XXZZ=       10652192.4708 YYZZ=       34205897.4879
 XXYZ=       29239231.0269 YYXZ=       52412082.9815 ZZXY=       19100424.2347
 N-N= 4.520580702874D+01 E-N=-3.064966362655D+02  KE= 9.262258155004D+01
 Orbital energies and kinetic energies (alpha):
                                 1                 2
   1         O               -14.210739         21.635055
   2         O                -9.976762         15.573445
   3         O                -1.065540          1.729166
   4         O                -0.790623          1.410501
   5         O                -0.683373          1.199442
   6         O                -0.670644          1.209283
   7         O                -0.573346          1.380733
   8         O                -0.516274          1.088170
   9         O                -0.496775          1.085497
  10         V                 0.007905          2.715739
  11         V                 0.038456          2.604110
  12         V                 0.065508          2.192251
  13         V                 0.073582          2.219768
  14         V                 0.227210          2.282504
  15         V                 0.234028          2.220128
  16         V                 0.257794          2.555132
 Total kinetic energy from orbitals= 9.262258155004D+01
 No NMR shielding tensors so no spin-rotation constants.
 Leave Link  601 at Fri May 22 12:39:34 2026, MaxMem=   131072000 cpu:               0.1 elap:               0.1
 (Enter /afs/math/software/gaussian/g16.A03/g16/l602.exe)
 FitSet:  NAtFit=     8 NAtPot=     8 NAtFrz=     0 MDM=    12 TotChg=   1.00000
 Merz-Kollman atomic radii used.

 **********************************************************************

            Electrostatic Properties Using The SCF Density

 **********************************************************************

       Atomic Center    1 is at  47.861605 85.636014 31.098540
       Atomic Center    2 is at  47.697966 84.828638 30.428451
       Atomic Center    3 is at  47.173045 86.427817 30.889721
       Atomic Center    4 is at  48.847865 85.989154 31.045963
       Atomic Center    5 is at  47.568599 85.140849 32.504912
       Atomic Center    6 is at  48.264135 84.330384 32.701190
       Atomic Center    7 is at  46.541083 84.790281 32.513664
       Atomic Center    8 is at  47.703360 85.947654 33.182760
      Read-in Center  472 is at  46.945830 86.404282 34.342842
      Read-in Center  473 is at  48.857194 86.990370 33.324152
      Read-in Center  474 is at  49.529381 86.792933 32.620386
      Read-in Center  475 is at  49.137498 88.126235 34.196955
      Read-in Center  476 is at  49.296582 87.763124 35.182025
      Read-in Center  477 is at  50.357441 88.891353 33.740950
      Read-in Center  478 is at  50.577393 89.690753 34.435493
      Read-in Center  479 is at  51.206776 88.230564 33.742013
      Read-in Center  480 is at  50.196682 89.396507 32.451057
      Read-in Center  481 is at  50.963223 89.910058 32.219757
      Read-in Center  482 is at  47.963308 89.097677 34.227486
      Read-in Center  483 is at  47.648761 89.636937 33.235959
      Read-in Center  484 is at  47.290000 89.260000 35.250000
      Read-in Center  485 is at  46.537676 86.470509 34.788860
      Read-in Center  486 is at  47.353983 86.338054 33.896824
      Read-in Center  487 is at  49.394937 87.341415 33.259802
      Read-in Center  488 is at  48.319452 86.639324 33.388501
     463 points will be used for fitting atomic charges
 Fitting point charges to electrostatic potential
 Charges from ESP fit, RMS=   0.00179 RRMS=   0.01053:
 ESP charges:
               1
     1  N   -0.221636
     2  H    0.309872
     3  H    0.339560
     4  H    0.313153
     5  C   -0.052306
     6  H    0.110821
     7  H    0.136666
     8  H    0.063870
 Sum of ESP charges =   1.00000
 ESP charges with hydrogens summed into heavy atoms:
               1
     1  N    0.740949
     5  C    0.259051
 Charge=   1.00000 Dipole=   229.3785   410.9180   150.0237 Tot=   493.9385
 -----------------------------------------------------------------

              Electrostatic Properties (Atomic Units)

 -----------------------------------------------------------------
    Center     Electric         -------- Electric Field --------
               Potential          X             Y             Z
 -----------------------------------------------------------------
    1 Atom    -17.598285     -0.004153     -0.006236      0.019904
    2 Atom     -0.679947     -0.001462     -0.028009     -0.028162
    3 Atom     -0.659024     -0.013592      0.020388     -0.009437
    4 Atom     -0.680117      0.048182      0.015374     -0.004746
    5 Atom    -14.225741     -0.006255     -0.022663      0.046785
    6 Atom     -0.865032      0.029973     -0.040650      0.027413
    7 Atom     -0.841089     -0.043674     -0.020215      0.018683
    8 Atom     -0.904620      0.012768      0.064940      0.074251
  472           0.160926     -0.011432      0.008242      0.026803
  473           0.182658      0.015433      0.017267      0.021305
  474           0.197779      0.021453      0.017105      0.025780
  475           0.124821      0.005148      0.009512      0.010724
  476           0.109362      0.003961      0.005570      0.009666
  477           0.106470      0.005756      0.007568      0.005898
  478           0.088361      0.003614      0.005372      0.004238
  479           0.104280      0.007218      0.005718      0.005614
  480           0.111698      0.006189      0.010137      0.003558
  481           0.096105      0.005275      0.007353      0.001848
  482           0.112263      0.000601      0.009476      0.007950
  483           0.114801     -0.000211      0.011501      0.005935
  484           0.095551     -0.000737      0.006161      0.006583
  485           0.136278     -0.006574      0.004911      0.016721
  486           0.223856     -0.046696      0.047300      0.101776
  487           0.161511      0.012187      0.013692      0.016360
  488           0.228038      0.057125      0.062516      0.037004
 -----------------------------------------------------------------
 Leave Link  602 at Fri May 22 12:39:34 2026, MaxMem=   131072000 cpu:               0.0 elap:               0.0
 (Enter /afs/math/software/gaussian/g16.A03/g16/l701.exe)
 ... and contract with generalized density number  0.
 Compute integral first derivatives.
 Leave Link  701 at Fri May 22 12:39:34 2026, MaxMem=   131072000 cpu:               0.1 elap:               0.1
 (Enter /afs/math/software/gaussian/g16.A03/g16/l702.exe)
 L702 exits ... SP integral derivatives will be done elsewhere.
 Leave Link  702 at Fri May 22 12:39:34 2026, MaxMem=   131072000 cpu:               0.0 elap:               0.0
 (Enter /afs/math/software/gaussian/g16.A03/g16/l703.exe)
 Integral derivatives from FoFJK, PRISM(SPDF).
 Compute integral first derivatives, UseDBF=F ICtDFT=           0.
 Calling FoFJK, ICntrl=      2527 FMM=F ISym2X=0 I1Cent= 0 IOpClX= 0 NMat=1 NMatS=1 NMatT=0.
 FoFJK:  IHMeth= 1 ICntrl=    2527 DoSepK=F KAlg= 0 I1Cent=           0 FoldK=F
 IRaf=         0 NMat=       1 IRICut=       1 DoRegI=T DoRafI=F ISym2E= 0 IDoP0=0 IntGTp=1.
 FoFCou: FMM=F IPFlag=           0 FMFlag=      100000 FMFlg1=         800
         NFxFlg=           0 DoJE=F BraDBF=F KetDBF=F FulRan=T
         wScrn=  0.000000 ICntrl=      2527 IOpCl=  0 I1Cent=           0 NGrid=           0
         NMat0=    1 NMatS0=      1 NMatT0=    0 NMatD0=    1 NMtDS0=    0 NMtDT0=    0
 Symmetry not used in FoFCou.
 Leave Link  703 at Fri May 22 12:39:35 2026, MaxMem=   131072000 cpu:               0.6 elap:               0.6
 (Enter /afs/math/software/gaussian/g16.A03/g16/l716.exe)
 Dipole        = 9.02440618D+01 1.61663974D+02 5.90254126D+01
 -------------------------------------------------------------------
 Center     Atomic                   Forces (Hartrees/Bohr)
 Number     Number              X              Y              Z
 -------------------------------------------------------------------
      1        7          -0.020293832    0.004445222    0.001024847
      2        1           0.003131933    0.001434376   -0.009384304
      3        1           0.003608787    0.005628493   -0.006152357
      4        1           0.014145195    0.008243783   -0.011635042
      5        6           0.000409577   -0.020754899   -0.012369368
      6        1           0.012170003   -0.015477996    0.008907779
      7        1          -0.020188513   -0.004405270    0.006503381
      8        1          -0.002403571    0.005028968    0.002167621
 -------------------------------------------------------------------
 Cartesian Forces:  Max     0.020754899 RMS     0.010357285
 Force constants in Cartesian coordinates: 
                1             2             3             4             5 
      1  0.789476D+00
      2  0.121186D-01  0.761982D+00
      3  0.128543D-01  0.361755D-01  0.678292D+00
      4 -0.355071D-01 -0.305525D-01 -0.227867D-01  0.184904D+00
      5 -0.332758D-01 -0.187028D+00 -0.135591D+00  0.317072D-01  0.332698D+00
      6 -0.306423D-01 -0.163790D+00 -0.168629D+00  0.327710D-01  0.135355D+00
      7 -0.140625D+00  0.130177D+00 -0.358205D-01  0.518065D-01 -0.380966D-02
      8  0.140983D+00 -0.192140D+00  0.469768D-01 -0.564019D-02  0.619795D-01
      9 -0.551735D-01  0.660573D-01 -0.450874D-01 -0.515310D-02  0.238219D-01
     10 -0.308301D+00 -0.101317D+00  0.192912D-01  0.562297D-01  0.233728D-02
     11 -0.109144D+00 -0.683535D-01  0.704923D-02  0.912461D-02  0.564325D-01
     12  0.457393D-01  0.160714D-01 -0.346706D-01  0.191446D-01  0.178662D-01
     13 -0.721129D-01 -0.141688D-01  0.361132D-01  0.172280D-01  0.343659D-02
     14 -0.140007D-01 -0.859047D-01  0.606861D-01  0.423087D-02  0.265080D-01
     15  0.358934D-01  0.611112D-01 -0.238348D+00 -0.229801D-02 -0.275592D-02
     16  0.217001D-01 -0.267620D-02 -0.436222D-02  0.336691D-01 -0.405254D-02
     17 -0.103150D-02  0.209164D-01 -0.593825D-02  0.219290D-01  0.730683D-03
     18 -0.785484D-02 -0.192678D-02  0.344972D-01  0.275034D-01 -0.395727D-01
     19  0.223616D-01  0.285418D-02 -0.220622D-02  0.263208D-01 -0.190098D-02
     20  0.120397D-02  0.178928D-01 -0.641611D-02 -0.359537D-01  0.168739D-01
     21  0.338306D-02 -0.448584D-02  0.355824D-01 -0.468877D-01 -0.196310D-01
     22  0.173844D-01  0.356516D-02 -0.308311D-02 -0.402745D-01  0.555786D-02
     23  0.314688D-02  0.270112D-01 -0.294203D-02  0.515461D-02 -0.138181D-01
     24 -0.419947D-02 -0.921287D-02  0.327392D-01 -0.229348D-02  0.205076D-01
                6             7             8             9            10 
      6  0.232619D+00
      7  0.495523D-02  0.286183D+00
      8 -0.534051D-02 -0.123473D+00  0.307499D+00
      9  0.341411D-01  0.333927D-01 -0.148200D-01  0.144754D+00
     10 -0.330862D-02  0.645936D-01  0.416387D-02 -0.615154D-02  0.424112D+00
     11 -0.679293D-03 -0.156925D-01  0.487404D-01  0.835161D-02  0.825488D-01
     12  0.373377D-01  0.159668D-01  0.473025D-02  0.368865D-01  0.382228D-02
     13 -0.454720D-02  0.221236D-01 -0.763643D-03 -0.840844D-02  0.228323D-01
     14 -0.911412D-02 -0.358718D-02  0.202003D-01 -0.210965D-02  0.277836D-02
     15  0.325773D-01 -0.404626D-02 -0.587191D-02  0.342911D-01 -0.171972D-02
     16  0.167106D-02 -0.222300D-01 -0.240161D-01  0.720835D-02 -0.158458D-02
     17  0.145681D-01 -0.245388D-01 -0.172529D-02 -0.298192D-01 -0.131220D-01
     18  0.527605D-01  0.769664D-02 -0.301547D-01 -0.241833D-02  0.831052D-02
     19  0.844571D-03 -0.413730D-03 -0.125983D-01  0.746640D-02  0.115658D-01
     20  0.837895D-02  0.444412D-01  0.491545D-01 -0.120106D-01  0.242380D-01
     21  0.451265D-01 -0.235559D-01 -0.102042D-01  0.389591D-01 -0.208696D-01
     22 -0.174374D-02  0.329384D-01  0.213448D-01  0.268191D-01  0.249287D-01
     23  0.206215D-01 -0.351661D-02  0.667192D-03 -0.394714D-01 -0.162702D-02
     24  0.284433D-01  0.141124D-02  0.146844D-01  0.528502D-01  0.625442D-03
               11            12            13            14            15 
     11  0.205553D+00
     12  0.127949D-01  0.143120D+00
     13  0.870039D-03  0.424363D-02  0.737856D+00
     14  0.181758D-01 -0.434093D-02 -0.560304D-02  0.742946D+00
     15 -0.635905D-02  0.364876D-01  0.193526D-01  0.505198D-01  0.667836D+00
     16  0.440158D-01 -0.230201D-01 -0.130111D+00  0.123389D+00 -0.330630D-01
     17  0.487212D-01 -0.103791D-01  0.133172D+00 -0.182878D+00  0.398810D-01
     18 -0.131731D-01  0.388560D-01 -0.515023D-01  0.585183D-01 -0.418342D-01
     19  0.235336D-01 -0.194770D-01 -0.270668D+00 -0.843841D-01  0.622799D-02
     20 -0.295453D-01 -0.164613D-01 -0.912758D-01 -0.578935D-01  0.906273D-03
     21 -0.168577D-01 -0.852383D-02  0.319303D-01  0.959518D-02 -0.268449D-01
     22 -0.352559D-01 -0.464196D-01 -0.327711D-01 -0.228227D-01 -0.203470D-01
     23  0.146519D-01 -0.202814D-01 -0.256669D-01 -0.186778D+00 -0.137431D+00
     24  0.887345D-02  0.448833D-01 -0.271819D-01 -0.163755D+00 -0.169789D+00
               16            17            18            19            20 
     16  0.276521D+00
     17 -0.114493D+00  0.300004D+00
     18  0.290386D-01 -0.768743D-02  0.143043D+00
     19  0.651406D-01  0.547046D-02 -0.676522D-02  0.384086D+00
     20 -0.184040D-01  0.455350D-01  0.900925D-02  0.649292D-01  0.196070D+00
     21  0.174295D-01  0.518037D-02  0.352983D-01  0.167591D-01  0.182723D-01
     22  0.512712D-01 -0.738577D-02 -0.642680D-02  0.559827D-01  0.108211D-01
     23 -0.376254D-02  0.630717D-01  0.249872D-01  0.209600D-02  0.562888D-01
     24  0.509779D-02 -0.580552D-02  0.341737D-01 -0.284963D-02 -0.167882D-02
               21            22            23            24 
     21  0.138619D+00
     22  0.218111D-01  0.184917D+00
     23  0.181310D-01  0.241756D-01  0.333282D+00
     24  0.361594D-01  0.293900D-01  0.136387D+00  0.234916D+00
 Leave Link  716 at Fri May 22 12:39:35 2026, MaxMem=   131072000 cpu:               0.0 elap:               0.0
 (Enter /afs/math/software/gaussian/g16.A03/g16/l103.exe)

 GradGradGradGradGradGradGradGradGradGradGradGradGradGradGradGradGradGrad
 Berny optimization.
 Search for a local minimum.
 Step number   1 out of a maximum of    2
 All quantities printed in internal units (Hartrees-Bohrs-Radians)
 Second derivative matrix not updated -- first step.
 ITU=  0
     Eigenvalues ---    0.00374   0.04328   0.04424   0.05478   0.08571
     Eigenvalues ---    0.08630   0.14219   0.14399   0.15408   0.15441
     Eigenvalues ---    0.21054   0.31446   0.52731   0.84014   0.86348
     Eigenvalues ---    0.97147   1.01194   1.01336
 Quadratic step=4.950D-01 exceeds max=3.000D-01 adjusted using Lamda=-2.132D-02.
 Angle between NR and scaled steps=  28.25 degrees.
 Angle between quadratic step and forces=  48.59 degrees.
 Linear search not attempted -- first point.
 Variable       Old X    -DE/DX   Delta X   Delta X   Delta X     New X
                                 (Linear)    (Quad)   (Total)
    X1       90.44533  -0.02029   0.00000  -0.00439  -0.00439  90.44094
    Y1      161.82861   0.00445   0.00000   0.02135   0.02135 161.84996
    Z1       58.76772   0.00102   0.00000  -0.01673  -0.01673  58.75100
    X2       90.13609   0.00313   0.00000   0.02224   0.02224  90.15834
    Y2      160.30289   0.00143   0.00000   0.05732   0.05732 160.36021
    Z2       57.50144  -0.00938   0.00000  -0.08066  -0.08066  57.42078
    X3       89.14414   0.00361   0.00000   0.04888   0.04888  89.19302
    Y3      163.32490   0.00563   0.00000   0.06209   0.06209 163.38700
    Z3       58.37311  -0.00615   0.00000  -0.05969  -0.05969  58.31342
    X4       92.30909   0.01415   0.00000   0.02747   0.02747  92.33656
    Y4      162.49595   0.00824   0.00000   0.03966   0.03966 162.53561
    Z4       58.66837  -0.01164   0.00000  -0.10569  -0.10569  58.56268
    X5       89.89162   0.00041   0.00000  -0.00882  -0.00882  89.88280
    Y5      160.89289  -0.02075   0.00000  -0.05999  -0.05999 160.83289
    Z5       61.42538  -0.01237   0.00000   0.01735   0.01735  61.44273
    X6       91.20600   0.01217   0.00000   0.03801   0.03801  91.24401
    Y6      159.36133  -0.01548   0.00000  -0.05558  -0.05558 159.30575
    Z6       61.79629   0.00891   0.00000   0.15288   0.15288  61.94917
    X7       87.94990  -0.02019   0.00000  -0.07151  -0.07151  87.87839
    Y7      160.23041  -0.00441   0.00000  -0.02783  -0.02783 160.20258
    Z7       61.44192   0.00650   0.00000   0.12718   0.12718  61.56910
    X8       90.14629  -0.00240   0.00000  -0.03188  -0.03188  90.11440
    Y8      162.41753   0.00503   0.00000   0.01481   0.01481 162.43234
    Z8       62.70633   0.00217   0.00000  -0.03226  -0.03226  62.67407
         Item               Value     Threshold  Converged?
 Maximum Force            0.020755     0.000450     NO 
 RMS     Force            0.010357     0.000300     NO 
 Maximum Displacement     0.152877     0.001800     NO 
 RMS     Displacement     0.061430     0.001200     NO 
 Predicted change in Energy=-6.015316D-03
 GradGradGradGradGradGradGradGradGradGradGradGradGradGradGradGradGradGrad

 Leave Link  103 at Fri May 22 12:39:35 2026, MaxMem=   131072000 cpu:               0.0 elap:               0.0
 (Enter /afs/math/software/gaussian/g16.A03/g16/l9999.exe)

 Test job not archived.
 1\1\GINC-CLUSTER-X\Force\RBP86\STO-3G\C1H6N1(1+)\JANSEN\22-May-2026\0\
 \#P BP86/STO-3G guess=read nosymm gfinput gfprint force charge guess=h
 uckel punch=derivatives iop(3/33=1,6/7=3) prop(field,read) pop=esp\\QM
  part of step 3\\1,1\N,47.861605,85.636014,31.09854\H,47.697966,84.828
 638,30.428451\H,47.173045,86.427817,30.889721\H,48.847865,85.989154,31
 .045963\C,47.568599,85.140849,32.504912\H,48.264135,84.330384,32.70119
 \H,46.541083,84.790281,32.513664\H,47.70336,85.947654,33.18276\\Versio
 n=ES64L-G16RevA.03\HF=-95.7872776\RMSD=6.634e-09\RMSF=1.036e-02\Dipole
 =0.0672976,0.2802565,-0.996367\Quadrupole=-4443.7355193,13547.4786092,
 -9103.7430898,14589.3029239,5326.433458,9541.7597191\PG=C01 [X(C1H6N1)
 ]\\@


 A FOOL CAN ASK MORE QUESTIONS THAN
 A WISE MAN CAN ANSWER.
 Job cpu time:       0 days  0 hours  0 minutes  4.1 seconds.
 Elapsed time:       0 days  0 hours  0 minutes  4.1 seconds.
 File lengths (MBytes):  RWF=     72 Int=      0 D2E=      0 Chk=      8 Scr=      8
 Normal termination of Gaussian 16 at Fri May 22 12:39:35 2026.
